+ 0 0 1 cbr 100 ------- 0 0.0 2.0 0 0
- 0 0 1 cbr 100 ------- 0 0.0 2.0 0 0
+ 0.0008 0 1 cbr 100 ------- 0 0.0 2.0 1 1
- 0.0008 0 1 cbr 100 ------- 0 0.0 2.0 1 1
+ 0.0016 0 1 cbr 100 ------- 0 0.0 2.0 2 2
- 0.0016 0 1 cbr 100 ------- 0 0.0 2.0 2 2
+ 0.0024 0 1 cbr 100 ------- 0 0.0 2.0 3 3
- 0.0024 0 1 cbr 100 ------- 0 0.0 2.0 3 3
+ 0.0032 0 1 cbr 100 ------- 0 0.0 2.0 4 4
- 0.0032 0 1 cbr 100 ------- 0 0.0 2.0 4 4
+ 0.004 0 1 cbr 100 ------- 0 0.0 2.0 5 5
- 0.004 0 1 cbr 100 ------- 0 0.0 2.0 5 5
+ 0.0048 0 1 cbr 100 ------- 0 0.0 2.0 6 6
- 0.0048 0 1 cbr 100 ------- 0 0.0 2.0 6 6
+ 0.0056 0 1 cbr 100 ------- 0 0.0 2.0 7 7
- 0.0056 0 1 cbr 100 ------- 0 0.0 2.0 7 7
+ 0.0064 0 1 cbr 100 ------- 0 0.0 2.0 8 8
- 0.0064 0 1 cbr 100 ------- 0 0.0 2.0 8 8
+ 0.0072 0 1 cbr 100 ------- 0 0.0 2.0 9 9
- 0.0072 0 1 cbr 100 ------- 0 0.0 2.0 9 9
+ 0.008 0 1 cbr 100 ------- 0 0.0 2.0 10 10
- 0.008 0 1 cbr 100 ------- 0 0.0 2.0 10 10
+ 0.0088 0 1 cbr 100 ------- 0 0.0 2.0 11 11
- 0.0088 0 1 cbr 100 ------- 0 0.0 2.0 11 11
+ 0.0096 0 1 cbr 100 ------- 0 0.0 2.0 12 12
- 0.0096 0 1 cbr 100 ------- 0 0.0 2.0 12 12
+ 0.0104 0 1 cbr 100 ------- 0 0.0 2.0 13 13
- 0.0104 0 1 cbr 100 ------- 0 0.0 2.0 13 13
r 0.0108 0 1 cbr 100 ------- 0 0.0 2.0 0 0
+ 0.0108 1 2 cbr 100 ------- 0 0.0 2.0 0 0
- 0.0108 1 2 cbr 100 ------- 0 0.0 2.0 0 0
+ 0.0112 0 1 cbr 100 ------- 0 0.0 2.0 14 14
- 0.0112 0 1 cbr 100 ------- 0 0.0 2.0 14 14
r 0.0116 0 1 cbr 100 ------- 0 0.0 2.0 1 1
+ 0.0116 1 2 cbr 100 ------- 0 0.0 2.0 1 1
+ 0.012 0 1 cbr 100 ------- 0 0.0 2.0 15 15
- 0.012 0 1 cbr 100 ------- 0 0.0 2.0 15 15
r 0.0124 0 1 cbr 100 ------- 0 0.0 2.0 2 2
+ 0.0124 1 2 cbr 100 ------- 0 0.0 2.0 2 2
+ 0.0128 0 1 cbr 100 ------- 0 0.0 2.0 16 16
- 0.0128 0 1 cbr 100 ------- 0 0.0 2.0 16 16
r 0.0132 0 1 cbr 100 ------- 0 0.0 2.0 3 3
+ 0.0132 1 2 cbr 100 ------- 0 0.0 2.0 3 3
+ 0.0136 0 1 cbr 100 ------- 0 0.0 2.0 17 17
- 0.0136 0 1 cbr 100 ------- 0 0.0 2.0 17 17
r 0.014 0 1 cbr 100 ------- 0 0.0 2.0 4 4
+ 0.014 1 2 cbr 100 ------- 0 0.0 2.0 4 4
+ 0.0144 0 1 cbr 100 ------- 0 0.0 2.0 18 18
- 0.0144 0 1 cbr 100 ------- 0 0.0 2.0 18 18
r 0.0148 0 1 cbr 100 ------- 0 0.0 2.0 5 5
+ 0.0148 1 2 cbr 100 ------- 0 0.0 2.0 5 5
- 0.0148 1 2 cbr 100 ------- 0 0.0 2.0 1 1
+ 0.0152 0 1 cbr 100 ------- 0 0.0 2.0 19 19
- 0.0152 0 1 cbr 100 ------- 0 0.0 2.0 19 19
r 0.0156 0 1 cbr 100 ------- 0 0.0 2.0 6 6
+ 0.0156 1 2 cbr 100 ------- 0 0.0 2.0 6 6
+ 0.016 0 1 cbr 100 ------- 0 0.0 2.0 20 20
- 0.016 0 1 cbr 100 ------- 0 0.0 2.0 20 20
r 0.0164 0 1 cbr 100 ------- 0 0.0 2.0 7 7
+ 0.0164 1 2 cbr 100 ------- 0 0.0 2.0 7 7
+ 0.0168 0 1 cbr 100 ------- 0 0.0 2.0 21 21
- 0.0168 0 1 cbr 100 ------- 0 0.0 2.0 21 21
r 0.0172 0 1 cbr 100 ------- 0 0.0 2.0 8 8
+ 0.0172 1 2 cbr 100 ------- 0 0.0 2.0 8 8
+ 0.0176 0 1 cbr 100 ------- 0 0.0 2.0 22 22
- 0.0176 0 1 cbr 100 ------- 0 0.0 2.0 22 22
r 0.018 0 1 cbr 100 ------- 0 0.0 2.0 9 9
+ 0.018 1 2 cbr 100 ------- 0 0.0 2.0 9 9
+ 0.0184 0 1 cbr 100 ------- 0 0.0 2.0 23 23
- 0.0184 0 1 cbr 100 ------- 0 0.0 2.0 23 23
- 0.0188 1 2 cbr 100 ------- 0 0.0 2.0 2 2
r 0.0188 0 1 cbr 100 ------- 0 0.0 2.0 10 10
+ 0.0188 1 2 cbr 100 ------- 0 0.0 2.0 10 10
+ 0.0192 0 1 cbr 100 ------- 0 0.0 2.0 24 24
- 0.0192 0 1 cbr 100 ------- 0 0.0 2.0 24 24
r 0.0196 0 1 cbr 100 ------- 0 0.0 2.0 11 11
+ 0.0196 1 2 cbr 100 ------- 0 0.0 2.0 11 11
+ 0.02 0 1 cbr 100 ------- 0 0.0 2.0 25 25
- 0.02 0 1 cbr 100 ------- 0 0.0 2.0 25 25
r 0.0204 0 1 cbr 100 ------- 0 0.0 2.0 12 12
+ 0.0204 1 2 cbr 100 ------- 0 0.0 2.0 12 12
d 0.0204 1 2 cbr 100 ------- 0 0.0 2.0 12 12
+ 0.0208 0 1 cbr 100 ------- 0 0.0 2.0 26 26
- 0.0208 0 1 cbr 100 ------- 0 0.0 2.0 26 26
r 0.0212 0 1 cbr 100 ------- 0 0.0 2.0 13 13
+ 0.0212 1 2 cbr 100 ------- 0 0.0 2.0 13 13
d 0.0212 1 2 cbr 100 ------- 0 0.0 2.0 13 13
+ 0.0216 0 1 cbr 100 ------- 0 0.0 2.0 27 27
- 0.0216 0 1 cbr 100 ------- 0 0.0 2.0 27 27
r 0.022 0 1 cbr 100 ------- 0 0.0 2.0 14 14
+ 0.022 1 2 cbr 100 ------- 0 0.0 2.0 14 14
d 0.022 1 2 cbr 100 ------- 0 0.0 2.0 14 14
+ 0.0224 0 1 cbr 100 ------- 0 0.0 2.0 28 28
- 0.0224 0 1 cbr 100 ------- 0 0.0 2.0 28 28
- 0.0228 1 2 cbr 100 ------- 0 0.0 2.0 3 3
r 0.0228 0 1 cbr 100 ------- 0 0.0 2.0 15 15
+ 0.0228 1 2 cbr 100 ------- 0 0.0 2.0 15 15
+ 0.0232 0 1 cbr 100 ------- 0 0.0 2.0 29 29
- 0.0232 0 1 cbr 100 ------- 0 0.0 2.0 29 29
r 0.0236 0 1 cbr 100 ------- 0 0.0 2.0 16 16
+ 0.0236 1 2 cbr 100 ------- 0 0.0 2.0 16 16
d 0.0236 1 2 cbr 100 ------- 0 0.0 2.0 16 16
+ 0.024 0 1 cbr 100 ------- 0 0.0 2.0 30 30
- 0.024 0 1 cbr 100 ------- 0 0.0 2.0 30 30
r 0.0244 0 1 cbr 100 ------- 0 0.0 2.0 17 17
+ 0.0244 1 2 cbr 100 ------- 0 0.0 2.0 17 17
d 0.0244 1 2 cbr 100 ------- 0 0.0 2.0 17 17
+ 0.0248 0 1 cbr 100 ------- 0 0.0 2.0 31 31
- 0.0248 0 1 cbr 100 ------- 0 0.0 2.0 31 31
r 0.0248 1 2 cbr 100 ------- 0 0.0 2.0 0 0
r 0.0252 0 1 cbr 100 ------- 0 0.0 2.0 18 18
+ 0.0252 1 2 cbr 100 ------- 0 0.0 2.0 18 18
d 0.0252 1 2 cbr 100 ------- 0 0.0 2.0 18 18
+ 0.0256 0 1 cbr 100 ------- 0 0.0 2.0 32 32
- 0.0256 0 1 cbr 100 ------- 0 0.0 2.0 32 32
r 0.026 0 1 cbr 100 ------- 0 0.0 2.0 19 19
+ 0.026 1 2 cbr 100 ------- 0 0.0 2.0 19 19
d 0.026 1 2 cbr 100 ------- 0 0.0 2.0 19 19
+ 0.0264 0 1 cbr 100 ------- 0 0.0 2.0 33 33
- 0.0264 0 1 cbr 100 ------- 0 0.0 2.0 33 33
- 0.0268 1 2 cbr 100 ------- 0 0.0 2.0 4 4
r 0.0268 0 1 cbr 100 ------- 0 0.0 2.0 20 20
+ 0.0268 1 2 cbr 100 ------- 0 0.0 2.0 20 20
+ 0.0272 0 1 cbr 100 ------- 0 0.0 2.0 34 34
- 0.0272 0 1 cbr 100 ------- 0 0.0 2.0 34 34
r 0.0276 0 1 cbr 100 ------- 0 0.0 2.0 21 21
+ 0.0276 1 2 cbr 100 ------- 0 0.0 2.0 21 21
d 0.0276 1 2 cbr 100 ------- 0 0.0 2.0 21 21
+ 0.028 0 1 cbr 100 ------- 0 0.0 2.0 35 35
- 0.028 0 1 cbr 100 ------- 0 0.0 2.0 35 35
r 0.0284 0 1 cbr 100 ------- 0 0.0 2.0 22 22
+ 0.0284 1 2 cbr 100 ------- 0 0.0 2.0 22 22
d 0.0284 1 2 cbr 100 ------- 0 0.0 2.0 22 22
+ 0.0288 0 1 cbr 100 ------- 0 0.0 2.0 36 36
- 0.0288 0 1 cbr 100 ------- 0 0.0 2.0 36 36
r 0.0288 1 2 cbr 100 ------- 0 0.0 2.0 1 1
r 0.0292 0 1 cbr 100 ------- 0 0.0 2.0 23 23
+ 0.0292 1 2 cbr 100 ------- 0 0.0 2.0 23 23
d 0.0292 1 2 cbr 100 ------- 0 0.0 2.0 23 23
+ 0.0296 0 1 cbr 100 ------- 0 0.0 2.0 37 37
- 0.0296 0 1 cbr 100 ------- 0 0.0 2.0 37 37
r 0.03 0 1 cbr 100 ------- 0 0.0 2.0 24 24
+ 0.03 1 2 cbr 100 ------- 0 0.0 2.0 24 24
d 0.03 1 2 cbr 100 ------- 0 0.0 2.0 24 24
+ 0.0304 0 1 cbr 100 ------- 0 0.0 2.0 38 38
- 0.0304 0 1 cbr 100 ------- 0 0.0 2.0 38 38
r 0.0308 0 1 cbr 100 ------- 0 0.0 2.0 25 25
+ 0.0308 1 2 cbr 100 ------- 0 0.0 2.0 25 25
d 0.0308 1 2 cbr 100 ------- 0 0.0 2.0 25 25
- 0.0308 1 2 cbr 100 ------- 0 0.0 2.0 5 5
+ 0.0312 0 1 cbr 100 ------- 0 0.0 2.0 39 39
- 0.0312 0 1 cbr 100 ------- 0 0.0 2.0 39 39
r 0.0316 0 1 cbr 100 ------- 0 0.0 2.0 26 26
+ 0.0316 1 2 cbr 100 ------- 0 0.0 2.0 26 26
+ 0.032 0 1 cbr 100 ------- 0 0.0 2.0 40 40
- 0.032 0 1 cbr 100 ------- 0 0.0 2.0 40 40
r 0.0324 0 1 cbr 100 ------- 0 0.0 2.0 27 27
+ 0.0324 1 2 cbr 100 ------- 0 0.0 2.0 27 27
d 0.0324 1 2 cbr 100 ------- 0 0.0 2.0 27 27
+ 0.0328 0 1 cbr 100 ------- 0 0.0 2.0 41 41
- 0.0328 0 1 cbr 100 ------- 0 0.0 2.0 41 41
r 0.0328 1 2 cbr 100 ------- 0 0.0 2.0 2 2
r 0.0332 0 1 cbr 100 ------- 0 0.0 2.0 28 28
+ 0.0332 1 2 cbr 100 ------- 0 0.0 2.0 28 28
d 0.0332 1 2 cbr 100 ------- 0 0.0 2.0 28 28
+ 0.0336 0 1 cbr 100 ------- 0 0.0 2.0 42 42
- 0.0336 0 1 cbr 100 ------- 0 0.0 2.0 42 42
r 0.034 0 1 cbr 100 ------- 0 0.0 2.0 29 29
+ 0.034 1 2 cbr 100 ------- 0 0.0 2.0 29 29
d 0.034 1 2 cbr 100 ------- 0 0.0 2.0 29 29
+ 0.0344 0 1 cbr 100 ------- 0 0.0 2.0 43 43
- 0.0344 0 1 cbr 100 ------- 0 0.0 2.0 43 43
r 0.0348 0 1 cbr 100 ------- 0 0.0 2.0 30 30
+ 0.0348 1 2 cbr 100 ------- 0 0.0 2.0 30 30
d 0.0348 1 2 cbr 100 ------- 0 0.0 2.0 30 30
- 0.0348 1 2 cbr 100 ------- 0 0.0 2.0 6 6
+ 0.0352 0 1 cbr 100 ------- 0 0.0 2.0 44 44
- 0.0352 0 1 cbr 100 ------- 0 0.0 2.0 44 44
r 0.0356 0 1 cbr 100 ------- 0 0.0 2.0 31 31
+ 0.0356 1 2 cbr 100 ------- 0 0.0 2.0 31 31
+ 0.036 0 1 cbr 100 ------- 0 0.0 2.0 45 45
- 0.036 0 1 cbr 100 ------- 0 0.0 2.0 45 45
r 0.0364 0 1 cbr 100 ------- 0 0.0 2.0 32 32
+ 0.0364 1 2 cbr 100 ------- 0 0.0 2.0 32 32
d 0.0364 1 2 cbr 100 ------- 0 0.0 2.0 32 32
+ 0.0368 0 1 cbr 100 ------- 0 0.0 2.0 46 46
- 0.0368 0 1 cbr 100 ------- 0 0.0 2.0 46 46
r 0.0368 1 2 cbr 100 ------- 0 0.0 2.0 3 3
r 0.0372 0 1 cbr 100 ------- 0 0.0 2.0 33 33
+ 0.0372 1 2 cbr 100 ------- 0 0.0 2.0 33 33
d 0.0372 1 2 cbr 100 ------- 0 0.0 2.0 33 33
+ 0.0376 0 1 cbr 100 ------- 0 0.0 2.0 47 47
- 0.0376 0 1 cbr 100 ------- 0 0.0 2.0 47 47
r 0.038 0 1 cbr 100 ------- 0 0.0 2.0 34 34
+ 0.038 1 2 cbr 100 ------- 0 0.0 2.0 34 34
d 0.038 1 2 cbr 100 ------- 0 0.0 2.0 34 34
+ 0.0384 0 1 cbr 100 ------- 0 0.0 2.0 48 48
- 0.0384 0 1 cbr 100 ------- 0 0.0 2.0 48 48
r 0.0388 0 1 cbr 100 ------- 0 0.0 2.0 35 35
+ 0.0388 1 2 cbr 100 ------- 0 0.0 2.0 35 35
d 0.0388 1 2 cbr 100 ------- 0 0.0 2.0 35 35
- 0.0388 1 2 cbr 100 ------- 0 0.0 2.0 7 7
+ 0.0392 0 1 cbr 100 ------- 0 0.0 2.0 49 49
- 0.0392 0 1 cbr 100 ------- 0 0.0 2.0 49 49
r 0.0396 0 1 cbr 100 ------- 0 0.0 2.0 36 36
+ 0.0396 1 2 cbr 100 ------- 0 0.0 2.0 36 36
+ 0.04 0 1 cbr 100 ------- 0 0.0 2.0 50 50
- 0.04 0 1 cbr 100 ------- 0 0.0 2.0 50 50
r 0.0404 0 1 cbr 100 ------- 0 0.0 2.0 37 37
+ 0.0404 1 2 cbr 100 ------- 0 0.0 2.0 37 37
d 0.0404 1 2 cbr 100 ------- 0 0.0 2.0 37 37
r 0.0408 1 2 cbr 100 ------- 0 0.0 2.0 4 4
+ 0.0408 0 1 cbr 100 ------- 0 0.0 2.0 51 51
- 0.0408 0 1 cbr 100 ------- 0 0.0 2.0 51 51
r 0.0412 0 1 cbr 100 ------- 0 0.0 2.0 38 38
+ 0.0412 1 2 cbr 100 ------- 0 0.0 2.0 38 38
d 0.0412 1 2 cbr 100 ------- 0 0.0 2.0 38 38
+ 0.0416 0 1 cbr 100 ------- 0 0.0 2.0 52 52
- 0.0416 0 1 cbr 100 ------- 0 0.0 2.0 52 52
r 0.042 0 1 cbr 100 ------- 0 0.0 2.0 39 39
+ 0.042 1 2 cbr 100 ------- 0 0.0 2.0 39 39
d 0.042 1 2 cbr 100 ------- 0 0.0 2.0 39 39
+ 0.0424 0 1 cbr 100 ------- 0 0.0 2.0 53 53
- 0.0424 0 1 cbr 100 ------- 0 0.0 2.0 53 53
r 0.0428 0 1 cbr 100 ------- 0 0.0 2.0 40 40
+ 0.0428 1 2 cbr 100 ------- 0 0.0 2.0 40 40
d 0.0428 1 2 cbr 100 ------- 0 0.0 2.0 40 40
- 0.0428 1 2 cbr 100 ------- 0 0.0 2.0 8 8
+ 0.0432 0 1 cbr 100 ------- 0 0.0 2.0 54 54
- 0.0432 0 1 cbr 100 ------- 0 0.0 2.0 54 54
r 0.0436 0 1 cbr 100 ------- 0 0.0 2.0 41 41
+ 0.0436 1 2 cbr 100 ------- 0 0.0 2.0 41 41
+ 0.044 0 1 cbr 100 ------- 0 0.0 2.0 55 55
- 0.044 0 1 cbr 100 ------- 0 0.0 2.0 55 55
r 0.0444 0 1 cbr 100 ------- 0 0.0 2.0 42 42
+ 0.0444 1 2 cbr 100 ------- 0 0.0 2.0 42 42
d 0.0444 1 2 cbr 100 ------- 0 0.0 2.0 42 42
r 0.0448 1 2 cbr 100 ------- 0 0.0 2.0 5 5
+ 0.0448 0 1 cbr 100 ------- 0 0.0 2.0 56 56
- 0.0448 0 1 cbr 100 ------- 0 0.0 2.0 56 56
r 0.0452 0 1 cbr 100 ------- 0 0.0 2.0 43 43
+ 0.0452 1 2 cbr 100 ------- 0 0.0 2.0 43 43
d 0.0452 1 2 cbr 100 ------- 0 0.0 2.0 43 43
+ 0.0456 0 1 cbr 100 ------- 0 0.0 2.0 57 57
- 0.0456 0 1 cbr 100 ------- 0 0.0 2.0 57 57
r 0.046 0 1 cbr 100 ------- 0 0.0 2.0 44 44
+ 0.046 1 2 cbr 100 ------- 0 0.0 2.0 44 44
d 0.046 1 2 cbr 100 ------- 0 0.0 2.0 44 44
+ 0.0464 0 1 cbr 100 ------- 0 0.0 2.0 58 58
- 0.0464 0 1 cbr 100 ------- 0 0.0 2.0 58 58
r 0.0468 0 1 cbr 100 ------- 0 0.0 2.0 45 45
+ 0.0468 1 2 cbr 100 ------- 0 0.0 2.0 45 45
d 0.0468 1 2 cbr 100 ------- 0 0.0 2.0 45 45
- 0.0468 1 2 cbr 100 ------- 0 0.0 2.0 9 9
+ 0.0472 0 1 cbr 100 ------- 0 0.0 2.0 59 59
- 0.0472 0 1 cbr 100 ------- 0 0.0 2.0 59 59
r 0.0476 0 1 cbr 100 ------- 0 0.0 2.0 46 46
+ 0.0476 1 2 cbr 100 ------- 0 0.0 2.0 46 46
+ 0.048 0 1 cbr 100 ------- 0 0.0 2.0 60 60
- 0.048 0 1 cbr 100 ------- 0 0.0 2.0 60 60
r 0.0484 0 1 cbr 100 ------- 0 0.0 2.0 47 47
+ 0.0484 1 2 cbr 100 ------- 0 0.0 2.0 47 47
d 0.0484 1 2 cbr 100 ------- 0 0.0 2.0 47 47
r 0.0488 1 2 cbr 100 ------- 0 0.0 2.0 6 6
+ 0.0488 0 1 cbr 100 ------- 0 0.0 2.0 61 61
- 0.0488 0 1 cbr 100 ------- 0 0.0 2.0 61 61
r 0.0492 0 1 cbr 100 ------- 0 0.0 2.0 48 48
+ 0.0492 1 2 cbr 100 ------- 0 0.0 2.0 48 48
d 0.0492 1 2 cbr 100 ------- 0 0.0 2.0 48 48
+ 0.0496 0 1 cbr 100 ------- 0 0.0 2.0 62 62
- 0.0496 0 1 cbr 100 ------- 0 0.0 2.0 62 62
r 0.05 0 1 cbr 100 ------- 0 0.0 2.0 49 49
+ 0.05 1 2 cbr 100 ------- 0 0.0 2.0 49 49
d 0.05 1 2 cbr 100 ------- 0 0.0 2.0 49 49
+ 0.0504 0 1 cbr 100 ------- 0 0.0 2.0 63 63
- 0.0504 0 1 cbr 100 ------- 0 0.0 2.0 63 63
r 0.0508 0 1 cbr 100 ------- 0 0.0 2.0 50 50
+ 0.0508 1 2 cbr 100 ------- 0 0.0 2.0 50 50
d 0.0508 1 2 cbr 100 ------- 0 0.0 2.0 50 50
- 0.0508 1 2 cbr 100 ------- 0 0.0 2.0 10 10
+ 0.0512 0 1 cbr 100 ------- 0 0.0 2.0 64 64
- 0.0512 0 1 cbr 100 ------- 0 0.0 2.0 64 64
r 0.0516 0 1 cbr 100 ------- 0 0.0 2.0 51 51
+ 0.0516 1 2 cbr 100 ------- 0 0.0 2.0 51 51
+ 0.052 0 1 cbr 100 ------- 0 0.0 2.0 65 65
- 0.052 0 1 cbr 100 ------- 0 0.0 2.0 65 65
r 0.0524 0 1 cbr 100 ------- 0 0.0 2.0 52 52
+ 0.0524 1 2 cbr 100 ------- 0 0.0 2.0 52 52
d 0.0524 1 2 cbr 100 ------- 0 0.0 2.0 52 52
r 0.0528 1 2 cbr 100 ------- 0 0.0 2.0 7 7
+ 0.0528 0 1 cbr 100 ------- 0 0.0 2.0 66 66
- 0.0528 0 1 cbr 100 ------- 0 0.0 2.0 66 66
r 0.0532 0 1 cbr 100 ------- 0 0.0 2.0 53 53
+ 0.0532 1 2 cbr 100 ------- 0 0.0 2.0 53 53
d 0.0532 1 2 cbr 100 ------- 0 0.0 2.0 53 53
+ 0.0536 0 1 cbr 100 ------- 0 0.0 2.0 67 67
- 0.0536 0 1 cbr 100 ------- 0 0.0 2.0 67 67
r 0.054 0 1 cbr 100 ------- 0 0.0 2.0 54 54
+ 0.054 1 2 cbr 100 ------- 0 0.0 2.0 54 54
d 0.054 1 2 cbr 100 ------- 0 0.0 2.0 54 54
+ 0.0544 0 1 cbr 100 ------- 0 0.0 2.0 68 68
- 0.0544 0 1 cbr 100 ------- 0 0.0 2.0 68 68
r 0.0548 0 1 cbr 100 ------- 0 0.0 2.0 55 55
+ 0.0548 1 2 cbr 100 ------- 0 0.0 2.0 55 55
d 0.0548 1 2 cbr 100 ------- 0 0.0 2.0 55 55
- 0.0548 1 2 cbr 100 ------- 0 0.0 2.0 11 11
+ 0.0552 0 1 cbr 100 ------- 0 0.0 2.0 69 69
- 0.0552 0 1 cbr 100 ------- 0 0.0 2.0 69 69
r 0.0556 0 1 cbr 100 ------- 0 0.0 2.0 56 56
+ 0.0556 1 2 cbr 100 ------- 0 0.0 2.0 56 56
+ 0.056 0 1 cbr 100 ------- 0 0.0 2.0 70 70
- 0.056 0 1 cbr 100 ------- 0 0.0 2.0 70 70
r 0.0564 0 1 cbr 100 ------- 0 0.0 2.0 57 57
+ 0.0564 1 2 cbr 100 ------- 0 0.0 2.0 57 57
d 0.0564 1 2 cbr 100 ------- 0 0.0 2.0 57 57
r 0.0568 1 2 cbr 100 ------- 0 0.0 2.0 8 8
+ 0.0568 0 1 cbr 100 ------- 0 0.0 2.0 71 71
- 0.0568 0 1 cbr 100 ------- 0 0.0 2.0 71 71
r 0.0572 0 1 cbr 100 ------- 0 0.0 2.0 58 58
+ 0.0572 1 2 cbr 100 ------- 0 0.0 2.0 58 58
d 0.0572 1 2 cbr 100 ------- 0 0.0 2.0 58 58
+ 0.0576 0 1 cbr 100 ------- 0 0.0 2.0 72 72
- 0.0576 0 1 cbr 100 ------- 0 0.0 2.0 72 72
r 0.058 0 1 cbr 100 ------- 0 0.0 2.0 59 59
+ 0.058 1 2 cbr 100 ------- 0 0.0 2.0 59 59
d 0.058 1 2 cbr 100 ------- 0 0.0 2.0 59 59
+ 0.0584 0 1 cbr 100 ------- 0 0.0 2.0 73 73
- 0.0584 0 1 cbr 100 ------- 0 0.0 2.0 73 73
r 0.0588 0 1 cbr 100 ------- 0 0.0 2.0 60 60
+ 0.0588 1 2 cbr 100 ------- 0 0.0 2.0 60 60
d 0.0588 1 2 cbr 100 ------- 0 0.0 2.0 60 60
- 0.0588 1 2 cbr 100 ------- 0 0.0 2.0 15 15
+ 0.0592 0 1 cbr 100 ------- 0 0.0 2.0 74 74
- 0.0592 0 1 cbr 100 ------- 0 0.0 2.0 74 74
r 0.0596 0 1 cbr 100 ------- 0 0.0 2.0 61 61
+ 0.0596 1 2 cbr 100 ------- 0 0.0 2.0 61 61
+ 0.06 0 1 cbr 100 ------- 0 0.0 2.0 75 75
- 0.06 0 1 cbr 100 ------- 0 0.0 2.0 75 75
r 0.0604 0 1 cbr 100 ------- 0 0.0 2.0 62 62
+ 0.0604 1 2 cbr 100 ------- 0 0.0 2.0 62 62
d 0.0604 1 2 cbr 100 ------- 0 0.0 2.0 62 62
r 0.0608 1 2 cbr 100 ------- 0 0.0 2.0 9 9
+ 0.0608 0 1 cbr 100 ------- 0 0.0 2.0 76 76
- 0.0608 0 1 cbr 100 ------- 0 0.0 2.0 76 76
r 0.0612 0 1 cbr 100 ------- 0 0.0 2.0 63 63
+ 0.0612 1 2 cbr 100 ------- 0 0.0 2.0 63 63
d 0.0612 1 2 cbr 100 ------- 0 0.0 2.0 63 63
+ 0.0616 0 1 cbr 100 ------- 0 0.0 2.0 77 77
- 0.0616 0 1 cbr 100 ------- 0 0.0 2.0 77 77
r 0.062 0 1 cbr 100 ------- 0 0.0 2.0 64 64
+ 0.062 1 2 cbr 100 ------- 0 0.0 2.0 64 64
d 0.062 1 2 cbr 100 ------- 0 0.0 2.0 64 64
+ 0.0624 0 1 cbr 100 ------- 0 0.0 2.0 78 78
- 0.0624 0 1 cbr 100 ------- 0 0.0 2.0 78 78
- 0.0628 1 2 cbr 100 ------- 0 0.0 2.0 20 20
r 0.0628 0 1 cbr 100 ------- 0 0.0 2.0 65 65
+ 0.0628 1 2 cbr 100 ------- 0 0.0 2.0 65 65
+ 0.0632 0 1 cbr 100 ------- 0 0.0 2.0 79 79
- 0.0632 0 1 cbr 100 ------- 0 0.0 2.0 79 79
r 0.0636 0 1 cbr 100 ------- 0 0.0 2.0 66 66
+ 0.0636 1 2 cbr 100 ------- 0 0.0 2.0 66 66
d 0.0636 1 2 cbr 100 ------- 0 0.0 2.0 66 66
+ 0.064 0 1 cbr 100 ------- 0 0.0 2.0 80 80
- 0.064 0 1 cbr 100 ------- 0 0.0 2.0 80 80
r 0.0644 0 1 cbr 100 ------- 0 0.0 2.0 67 67
+ 0.0644 1 2 cbr 100 ------- 0 0.0 2.0 67 67
d 0.0644 1 2 cbr 100 ------- 0 0.0 2.0 67 67
r 0.0648 1 2 cbr 100 ------- 0 0.0 2.0 10 10
+ 0.0648 0 1 cbr 100 ------- 0 0.0 2.0 81 81
- 0.0648 0 1 cbr 100 ------- 0 0.0 2.0 81 81
r 0.0652 0 1 cbr 100 ------- 0 0.0 2.0 68 68
+ 0.0652 1 2 cbr 100 ------- 0 0.0 2.0 68 68
d 0.0652 1 2 cbr 100 ------- 0 0.0 2.0 68 68
+ 0.0656 0 1 cbr 100 ------- 0 0.0 2.0 82 82
- 0.0656 0 1 cbr 100 ------- 0 0.0 2.0 82 82
r 0.066 0 1 cbr 100 ------- 0 0.0 2.0 69 69
+ 0.066 1 2 cbr 100 ------- 0 0.0 2.0 69 69
d 0.066 1 2 cbr 100 ------- 0 0.0 2.0 69 69
+ 0.0664 0 1 cbr 100 ------- 0 0.0 2.0 83 83
- 0.0664 0 1 cbr 100 ------- 0 0.0 2.0 83 83
- 0.0668 1 2 cbr 100 ------- 0 0.0 2.0 26 26
r 0.0668 0 1 cbr 100 ------- 0 0.0 2.0 70 70
+ 0.0668 1 2 cbr 100 ------- 0 0.0 2.0 70 70
+ 0.0672 0 1 cbr 100 ------- 0 0.0 2.0 84 84
- 0.0672 0 1 cbr 100 ------- 0 0.0 2.0 84 84
r 0.0676 0 1 cbr 100 ------- 0 0.0 2.0 71 71
+ 0.0676 1 2 cbr 100 ------- 0 0.0 2.0 71 71
d 0.0676 1 2 cbr 100 ------- 0 0.0 2.0 71 71
+ 0.068 0 1 cbr 100 ------- 0 0.0 2.0 85 85
- 0.068 0 1 cbr 100 ------- 0 0.0 2.0 85 85
r 0.0684 0 1 cbr 100 ------- 0 0.0 2.0 72 72
+ 0.0684 1 2 cbr 100 ------- 0 0.0 2.0 72 72
d 0.0684 1 2 cbr 100 ------- 0 0.0 2.0 72 72
r 0.0688 1 2 cbr 100 ------- 0 0.0 2.0 11 11
+ 0.0688 0 1 cbr 100 ------- 0 0.0 2.0 86 86
- 0.0688 0 1 cbr 100 ------- 0 0.0 2.0 86 86
r 0.0692 0 1 cbr 100 ------- 0 0.0 2.0 73 73
+ 0.0692 1 2 cbr 100 ------- 0 0.0 2.0 73 73
d 0.0692 1 2 cbr 100 ------- 0 0.0 2.0 73 73
+ 0.0696 0 1 cbr 100 ------- 0 0.0 2.0 87 87
- 0.0696 0 1 cbr 100 ------- 0 0.0 2.0 87 87
r 0.07 0 1 cbr 100 ------- 0 0.0 2.0 74 74
+ 0.07 1 2 cbr 100 ------- 0 0.0 2.0 74 74
d 0.07 1 2 cbr 100 ------- 0 0.0 2.0 74 74
+ 0.0704 0 1 cbr 100 ------- 0 0.0 2.0 88 88
- 0.0704 0 1 cbr 100 ------- 0 0.0 2.0 88 88
- 0.0708 1 2 cbr 100 ------- 0 0.0 2.0 31 31
r 0.0708 0 1 cbr 100 ------- 0 0.0 2.0 75 75
+ 0.0708 1 2 cbr 100 ------- 0 0.0 2.0 75 75
+ 0.0712 0 1 cbr 100 ------- 0 0.0 2.0 89 89
- 0.0712 0 1 cbr 100 ------- 0 0.0 2.0 89 89
r 0.0716 0 1 cbr 100 ------- 0 0.0 2.0 76 76
+ 0.0716 1 2 cbr 100 ------- 0 0.0 2.0 76 76
d 0.0716 1 2 cbr 100 ------- 0 0.0 2.0 76 76
+ 0.072 0 1 cbr 100 ------- 0 0.0 2.0 90 90
- 0.072 0 1 cbr 100 ------- 0 0.0 2.0 90 90
r 0.0724 0 1 cbr 100 ------- 0 0.0 2.0 77 77
+ 0.0724 1 2 cbr 100 ------- 0 0.0 2.0 77 77
d 0.0724 1 2 cbr 100 ------- 0 0.0 2.0 77 77
+ 0.0728 0 1 cbr 100 ------- 0 0.0 2.0 91 91
- 0.0728 0 1 cbr 100 ------- 0 0.0 2.0 91 91
r 0.0728 1 2 cbr 100 ------- 0 0.0 2.0 15 15
r 0.0732 0 1 cbr 100 ------- 0 0.0 2.0 78 78
+ 0.0732 1 2 cbr 100 ------- 0 0.0 2.0 78 78
d 0.0732 1 2 cbr 100 ------- 0 0.0 2.0 78 78
+ 0.0736 0 1 cbr 100 ------- 0 0.0 2.0 92 92
- 0.0736 0 1 cbr 100 ------- 0 0.0 2.0 92 92
r 0.074 0 1 cbr 100 ------- 0 0.0 2.0 79 79
+ 0.074 1 2 cbr 100 ------- 0 0.0 2.0 79 79
d 0.074 1 2 cbr 100 ------- 0 0.0 2.0 79 79
+ 0.0744 0 1 cbr 100 ------- 0 0.0 2.0 93 93
- 0.0744 0 1 cbr 100 ------- 0 0.0 2.0 93 93
- 0.0748 1 2 cbr 100 ------- 0 0.0 2.0 36 36
r 0.0748 0 1 cbr 100 ------- 0 0.0 2.0 80 80
+ 0.0748 1 2 cbr 100 ------- 0 0.0 2.0 80 80
+ 0.0752 0 1 cbr 100 ------- 0 0.0 2.0 94 94
- 0.0752 0 1 cbr 100 ------- 0 0.0 2.0 94 94
r 0.0756 0 1 cbr 100 ------- 0 0.0 2.0 81 81
+ 0.0756 1 2 cbr 100 ------- 0 0.0 2.0 81 81
d 0.0756 1 2 cbr 100 ------- 0 0.0 2.0 81 81
+ 0.076 0 1 cbr 100 ------- 0 0.0 2.0 95 95
- 0.076 0 1 cbr 100 ------- 0 0.0 2.0 95 95
r 0.0764 0 1 cbr 100 ------- 0 0.0 2.0 82 82
+ 0.0764 1 2 cbr 100 ------- 0 0.0 2.0 82 82
d 0.0764 1 2 cbr 100 ------- 0 0.0 2.0 82 82
+ 0.0768 0 1 cbr 100 ------- 0 0.0 2.0 96 96
- 0.0768 0 1 cbr 100 ------- 0 0.0 2.0 96 96
r 0.0768 1 2 cbr 100 ------- 0 0.0 2.0 20 20
r 0.0772 0 1 cbr 100 ------- 0 0.0 2.0 83 83
+ 0.0772 1 2 cbr 100 ------- 0 0.0 2.0 83 83
d 0.0772 1 2 cbr 100 ------- 0 0.0 2.0 83 83
+ 0.0776 0 1 cbr 100 ------- 0 0.0 2.0 97 97
- 0.0776 0 1 cbr 100 ------- 0 0.0 2.0 97 97
r 0.078 0 1 cbr 100 ------- 0 0.0 2.0 84 84
+ 0.078 1 2 cbr 100 ------- 0 0.0 2.0 84 84
d 0.078 1 2 cbr 100 ------- 0 0.0 2.0 84 84
+ 0.0784 0 1 cbr 100 ------- 0 0.0 2.0 98 98
- 0.0784 0 1 cbr 100 ------- 0 0.0 2.0 98 98
r 0.0788 0 1 cbr 100 ------- 0 0.0 2.0 85 85
+ 0.0788 1 2 cbr 100 ------- 0 0.0 2.0 85 85
d 0.0788 1 2 cbr 100 ------- 0 0.0 2.0 85 85
- 0.0788 1 2 cbr 100 ------- 0 0.0 2.0 41 41
+ 0.0792 0 1 cbr 100 ------- 0 0.0 2.0 99 99
- 0.0792 0 1 cbr 100 ------- 0 0.0 2.0 99 99
r 0.0796 0 1 cbr 100 ------- 0 0.0 2.0 86 86
+ 0.0796 1 2 cbr 100 ------- 0 0.0 2.0 86 86
+ 0.08 0 1 cbr 100 ------- 0 0.0 2.0 100 100
- 0.08 0 1 cbr 100 ------- 0 0.0 2.0 100 100
r 0.0804 0 1 cbr 100 ------- 0 0.0 2.0 87 87
+ 0.0804 1 2 cbr 100 ------- 0 0.0 2.0 87 87
d 0.0804 1 2 cbr 100 ------- 0 0.0 2.0 87 87
+ 0.0808 0 1 cbr 100 ------- 0 0.0 2.0 101 101
- 0.0808 0 1 cbr 100 ------- 0 0.0 2.0 101 101
r 0.0808 1 2 cbr 100 ------- 0 0.0 2.0 26 26
r 0.0812 0 1 cbr 100 ------- 0 0.0 2.0 88 88
+ 0.0812 1 2 cbr 100 ------- 0 0.0 2.0 88 88
d 0.0812 1 2 cbr 100 ------- 0 0.0 2.0 88 88
+ 0.0816 0 1 cbr 100 ------- 0 0.0 2.0 102 102
- 0.0816 0 1 cbr 100 ------- 0 0.0 2.0 102 102
r 0.082 0 1 cbr 100 ------- 0 0.0 2.0 89 89
+ 0.082 1 2 cbr 100 ------- 0 0.0 2.0 89 89
d 0.082 1 2 cbr 100 ------- 0 0.0 2.0 89 89
+ 0.0824 0 1 cbr 100 ------- 0 0.0 2.0 103 103
- 0.0824 0 1 cbr 100 ------- 0 0.0 2.0 103 103
r 0.0828 0 1 cbr 100 ------- 0 0.0 2.0 90 90
+ 0.0828 1 2 cbr 100 ------- 0 0.0 2.0 90 90
d 0.0828 1 2 cbr 100 ------- 0 0.0 2.0 90 90
- 0.0828 1 2 cbr 100 ------- 0 0.0 2.0 46 46
+ 0.0832 0 1 cbr 100 ------- 0 0.0 2.0 104 104
- 0.0832 0 1 cbr 100 ------- 0 0.0 2.0 104 104
r 0.0836 0 1 cbr 100 ------- 0 0.0 2.0 91 91
+ 0.0836 1 2 cbr 100 ------- 0 0.0 2.0 91 91
+ 0.084 0 1 cbr 100 ------- 0 0.0 2.0 105 105
- 0.084 0 1 cbr 100 ------- 0 0.0 2.0 105 105
r 0.0844 0 1 cbr 100 ------- 0 0.0 2.0 92 92
+ 0.0844 1 2 cbr 100 ------- 0 0.0 2.0 92 92
d 0.0844 1 2 cbr 100 ------- 0 0.0 2.0 92 92
+ 0.0848 0 1 cbr 100 ------- 0 0.0 2.0 106 106
- 0.0848 0 1 cbr 100 ------- 0 0.0 2.0 106 106
r 0.0848 1 2 cbr 100 ------- 0 0.0 2.0 31 31
r 0.0852 0 1 cbr 100 ------- 0 0.0 2.0 93 93
+ 0.0852 1 2 cbr 100 ------- 0 0.0 2.0 93 93
d 0.0852 1 2 cbr 100 ------- 0 0.0 2.0 93 93
+ 0.0856 0 1 cbr 100 ------- 0 0.0 2.0 107 107
- 0.0856 0 1 cbr 100 ------- 0 0.0 2.0 107 107
r 0.086 0 1 cbr 100 ------- 0 0.0 2.0 94 94
+ 0.086 1 2 cbr 100 ------- 0 0.0 2.0 94 94
d 0.086 1 2 cbr 100 ------- 0 0.0 2.0 94 94
+ 0.0864 0 1 cbr 100 ------- 0 0.0 2.0 108 108
- 0.0864 0 1 cbr 100 ------- 0 0.0 2.0 108 108
r 0.0868 0 1 cbr 100 ------- 0 0.0 2.0 95 95
+ 0.0868 1 2 cbr 100 ------- 0 0.0 2.0 95 95
d 0.0868 1 2 cbr 100 ------- 0 0.0 2.0 95 95
- 0.0868 1 2 cbr 100 ------- 0 0.0 2.0 51 51
+ 0.0872 0 1 cbr 100 ------- 0 0.0 2.0 109 109
- 0.0872 0 1 cbr 100 ------- 0 0.0 2.0 109 109
r 0.0876 0 1 cbr 100 ------- 0 0.0 2.0 96 96
+ 0.0876 1 2 cbr 100 ------- 0 0.0 2.0 96 96
+ 0.088 0 1 cbr 100 ------- 0 0.0 2.0 110 110
- 0.088 0 1 cbr 100 ------- 0 0.0 2.0 110 110
r 0.0884 0 1 cbr 100 ------- 0 0.0 2.0 97 97
+ 0.0884 1 2 cbr 100 ------- 0 0.0 2.0 97 97
d 0.0884 1 2 cbr 100 ------- 0 0.0 2.0 97 97
+ 0.0888 0 1 cbr 100 ------- 0 0.0 2.0 111 111
- 0.0888 0 1 cbr 100 ------- 0 0.0 2.0 111 111
r 0.0888 1 2 cbr 100 ------- 0 0.0 2.0 36 36
r 0.0892 0 1 cbr 100 ------- 0 0.0 2.0 98 98
+ 0.0892 1 2 cbr 100 ------- 0 0.0 2.0 98 98
d 0.0892 1 2 cbr 100 ------- 0 0.0 2.0 98 98
+ 0.0896 0 1 cbr 100 ------- 0 0.0 2.0 112 112
- 0.0896 0 1 cbr 100 ------- 0 0.0 2.0 112 112
r 0.09 0 1 cbr 100 ------- 0 0.0 2.0 99 99
+ 0.09 1 2 cbr 100 ------- 0 0.0 2.0 99 99
d 0.09 1 2 cbr 100 ------- 0 0.0 2.0 99 99
+ 0.0904 0 1 cbr 100 ------- 0 0.0 2.0 113 113
- 0.0904 0 1 cbr 100 ------- 0 0.0 2.0 113 113
r 0.0908 0 1 cbr 100 ------- 0 0.0 2.0 100 100
+ 0.0908 1 2 cbr 100 ------- 0 0.0 2.0 100 100
d 0.0908 1 2 cbr 100 ------- 0 0.0 2.0 100 100
- 0.0908 1 2 cbr 100 ------- 0 0.0 2.0 56 56
+ 0.0912 0 1 cbr 100 ------- 0 0.0 2.0 114 114
- 0.0912 0 1 cbr 100 ------- 0 0.0 2.0 114 114
r 0.0916 0 1 cbr 100 ------- 0 0.0 2.0 101 101
+ 0.0916 1 2 cbr 100 ------- 0 0.0 2.0 101 101
+ 0.092 0 1 cbr 100 ------- 0 0.0 2.0 115 115
- 0.092 0 1 cbr 100 ------- 0 0.0 2.0 115 115
r 0.0924 0 1 cbr 100 ------- 0 0.0 2.0 102 102
+ 0.0924 1 2 cbr 100 ------- 0 0.0 2.0 102 102
d 0.0924 1 2 cbr 100 ------- 0 0.0 2.0 102 102
+ 0.0928 0 1 cbr 100 ------- 0 0.0 2.0 116 116
- 0.0928 0 1 cbr 100 ------- 0 0.0 2.0 116 116
r 0.0928 1 2 cbr 100 ------- 0 0.0 2.0 41 41
r 0.0932 0 1 cbr 100 ------- 0 0.0 2.0 103 103
+ 0.0932 1 2 cbr 100 ------- 0 0.0 2.0 103 103
d 0.0932 1 2 cbr 100 ------- 0 0.0 2.0 103 103
+ 0.0936 0 1 cbr 100 ------- 0 0.0 2.0 117 117
- 0.0936 0 1 cbr 100 ------- 0 0.0 2.0 117 117
r 0.094 0 1 cbr 100 ------- 0 0.0 2.0 104 104
+ 0.094 1 2 cbr 100 ------- 0 0.0 2.0 104 104
d 0.094 1 2 cbr 100 ------- 0 0.0 2.0 104 104
+ 0.0944 0 1 cbr 100 ------- 0 0.0 2.0 118 118
- 0.0944 0 1 cbr 100 ------- 0 0.0 2.0 118 118
r 0.0948 0 1 cbr 100 ------- 0 0.0 2.0 105 105
+ 0.0948 1 2 cbr 100 ------- 0 0.0 2.0 105 105
d 0.0948 1 2 cbr 100 ------- 0 0.0 2.0 105 105
- 0.0948 1 2 cbr 100 ------- 0 0.0 2.0 61 61
+ 0.0952 0 1 cbr 100 ------- 0 0.0 2.0 119 119
- 0.0952 0 1 cbr 100 ------- 0 0.0 2.0 119 119
r 0.0956 0 1 cbr 100 ------- 0 0.0 2.0 106 106
+ 0.0956 1 2 cbr 100 ------- 0 0.0 2.0 106 106
+ 0.096 0 1 cbr 100 ------- 0 0.0 2.0 120 120
- 0.096 0 1 cbr 100 ------- 0 0.0 2.0 120 120
r 0.0964 0 1 cbr 100 ------- 0 0.0 2.0 107 107
+ 0.0964 1 2 cbr 100 ------- 0 0.0 2.0 107 107
d 0.0964 1 2 cbr 100 ------- 0 0.0 2.0 107 107
+ 0.0968 0 1 cbr 100 ------- 0 0.0 2.0 121 121
- 0.0968 0 1 cbr 100 ------- 0 0.0 2.0 121 121
r 0.0968 1 2 cbr 100 ------- 0 0.0 2.0 46 46
r 0.0972 0 1 cbr 100 ------- 0 0.0 2.0 108 108
+ 0.0972 1 2 cbr 100 ------- 0 0.0 2.0 108 108
d 0.0972 1 2 cbr 100 ------- 0 0.0 2.0 108 108
+ 0.0976 0 1 cbr 100 ------- 0 0.0 2.0 122 122
- 0.0976 0 1 cbr 100 ------- 0 0.0 2.0 122 122
r 0.098 0 1 cbr 100 ------- 0 0.0 2.0 109 109
+ 0.098 1 2 cbr 100 ------- 0 0.0 2.0 109 109
d 0.098 1 2 cbr 100 ------- 0 0.0 2.0 109 109
+ 0.0984 0 1 cbr 100 ------- 0 0.0 2.0 123 123
- 0.0984 0 1 cbr 100 ------- 0 0.0 2.0 123 123
r 0.0988 0 1 cbr 100 ------- 0 0.0 2.0 110 110
+ 0.0988 1 2 cbr 100 ------- 0 0.0 2.0 110 110
d 0.0988 1 2 cbr 100 ------- 0 0.0 2.0 110 110
- 0.0988 1 2 cbr 100 ------- 0 0.0 2.0 65 65
+ 0.0992 0 1 cbr 100 ------- 0 0.0 2.0 124 124
- 0.0992 0 1 cbr 100 ------- 0 0.0 2.0 124 124
r 0.0996 0 1 cbr 100 ------- 0 0.0 2.0 111 111
+ 0.0996 1 2 cbr 100 ------- 0 0.0 2.0 111 111
+ 0.1 0 1 cbr 100 ------- 0 0.0 2.0 125 125
- 0.1 0 1 cbr 100 ------- 0 0.0 2.0 125 125
r 0.1004 0 1 cbr 100 ------- 0 0.0 2.0 112 112
+ 0.1004 1 2 cbr 100 ------- 0 0.0 2.0 112 112
d 0.1004 1 2 cbr 100 ------- 0 0.0 2.0 112 112
+ 0.1008 0 1 cbr 100 ------- 0 0.0 2.0 126 126
- 0.1008 0 1 cbr 100 ------- 0 0.0 2.0 126 126
r 0.1008 1 2 cbr 100 ------- 0 0.0 2.0 51 51
r 0.1012 0 1 cbr 100 ------- 0 0.0 2.0 113 113
+ 0.1012 1 2 cbr 100 ------- 0 0.0 2.0 113 113
d 0.1012 1 2 cbr 100 ------- 0 0.0 2.0 113 113
+ 0.1016 0 1 cbr 100 ------- 0 0.0 2.0 127 127
- 0.1016 0 1 cbr 100 ------- 0 0.0 2.0 127 127
r 0.102 0 1 cbr 100 ------- 0 0.0 2.0 114 114
+ 0.102 1 2 cbr 100 ------- 0 0.0 2.0 114 114
d 0.102 1 2 cbr 100 ------- 0 0.0 2.0 114 114
+ 0.1024 0 1 cbr 100 ------- 0 0.0 2.0 128 128
- 0.1024 0 1 cbr 100 ------- 0 0.0 2.0 128 128
r 0.1028 0 1 cbr 100 ------- 0 0.0 2.0 115 115
+ 0.1028 1 2 cbr 100 ------- 0 0.0 2.0 115 115
d 0.1028 1 2 cbr 100 ------- 0 0.0 2.0 115 115
- 0.1028 1 2 cbr 100 ------- 0 0.0 2.0 70 70
+ 0.1032 0 1 cbr 100 ------- 0 0.0 2.0 129 129
- 0.1032 0 1 cbr 100 ------- 0 0.0 2.0 129 129
r 0.1036 0 1 cbr 100 ------- 0 0.0 2.0 116 116
+ 0.1036 1 2 cbr 100 ------- 0 0.0 2.0 116 116
+ 0.104 0 1 cbr 100 ------- 0 0.0 2.0 130 130
- 0.104 0 1 cbr 100 ------- 0 0.0 2.0 130 130
r 0.1044 0 1 cbr 100 ------- 0 0.0 2.0 117 117
+ 0.1044 1 2 cbr 100 ------- 0 0.0 2.0 117 117
d 0.1044 1 2 cbr 100 ------- 0 0.0 2.0 117 117
+ 0.1048 0 1 cbr 100 ------- 0 0.0 2.0 131 131
- 0.1048 0 1 cbr 100 ------- 0 0.0 2.0 131 131
r 0.1048 1 2 cbr 100 ------- 0 0.0 2.0 56 56
r 0.1052 0 1 cbr 100 ------- 0 0.0 2.0 118 118
+ 0.1052 1 2 cbr 100 ------- 0 0.0 2.0 118 118
d 0.1052 1 2 cbr 100 ------- 0 0.0 2.0 118 118
+ 0.1056 0 1 cbr 100 ------- 0 0.0 2.0 132 132
- 0.1056 0 1 cbr 100 ------- 0 0.0 2.0 132 132
r 0.106 0 1 cbr 100 ------- 0 0.0 2.0 119 119
+ 0.106 1 2 cbr 100 ------- 0 0.0 2.0 119 119
d 0.106 1 2 cbr 100 ------- 0 0.0 2.0 119 119
+ 0.1064 0 1 cbr 100 ------- 0 0.0 2.0 133 133
- 0.1064 0 1 cbr 100 ------- 0 0.0 2.0 133 133
r 0.1068 0 1 cbr 100 ------- 0 0.0 2.0 120 120
+ 0.1068 1 2 cbr 100 ------- 0 0.0 2.0 120 120
d 0.1068 1 2 cbr 100 ------- 0 0.0 2.0 120 120
- 0.1068 1 2 cbr 100 ------- 0 0.0 2.0 75 75
+ 0.1072 0 1 cbr 100 ------- 0 0.0 2.0 134 134
- 0.1072 0 1 cbr 100 ------- 0 0.0 2.0 134 134
r 0.1076 0 1 cbr 100 ------- 0 0.0 2.0 121 121
+ 0.1076 1 2 cbr 100 ------- 0 0.0 2.0 121 121
+ 0.108 0 1 cbr 100 ------- 0 0.0 2.0 135 135
- 0.108 0 1 cbr 100 ------- 0 0.0 2.0 135 135
r 0.1084 0 1 cbr 100 ------- 0 0.0 2.0 122 122
+ 0.1084 1 2 cbr 100 ------- 0 0.0 2.0 122 122
d 0.1084 1 2 cbr 100 ------- 0 0.0 2.0 122 122
+ 0.1088 0 1 cbr 100 ------- 0 0.0 2.0 136 136
- 0.1088 0 1 cbr 100 ------- 0 0.0 2.0 136 136
r 0.1088 1 2 cbr 100 ------- 0 0.0 2.0 61 61
r 0.1092 0 1 cbr 100 ------- 0 0.0 2.0 123 123
+ 0.1092 1 2 cbr 100 ------- 0 0.0 2.0 123 123
d 0.1092 1 2 cbr 100 ------- 0 0.0 2.0 123 123
+ 0.1096 0 1 cbr 100 ------- 0 0.0 2.0 137 137
- 0.1096 0 1 cbr 100 ------- 0 0.0 2.0 137 137
r 0.11 0 1 cbr 100 ------- 0 0.0 2.0 124 124
+ 0.11 1 2 cbr 100 ------- 0 0.0 2.0 124 124
d 0.11 1 2 cbr 100 ------- 0 0.0 2.0 124 124
+ 0.1104 0 1 cbr 100 ------- 0 0.0 2.0 138 138
- 0.1104 0 1 cbr 100 ------- 0 0.0 2.0 138 138