0.00000  0  0  3  0  cwnd_ 1.000 
0.00000  2  0  1  0  cwnd_ 1.000 
+ 0.1 0 1 tcp 40 ------- 0 0.0 3.0 0 0
- 0.1 0 1 tcp 40 ------- 0 0.0 3.0 0 0
r 0.110032 0 1 tcp 40 ------- 0 0.0 3.0 0 0
h 0.110032 1 7 tcp 40 ------- 0 0.0 3.0 0 0
+ 0.120032 1 7 tcp 40 ------- 0 0.0 3.0 0 0
- 0.120032 1 7 tcp 40 ------- 0 0.0 3.0 0 0
d 0.120036 6 7 tcp 40 ------- 0 0.0 3.0 0 0
d 0.120036 5 7 tcp 40 ------- 0 0.0 3.0 0 0
d 0.120036 4 7 tcp 40 ------- 0 0.0 3.0 0 0
d 0.120036 2 7 tcp 40 ------- 0 0.0 3.0 0 0
r 0.130036 7 3 tcp 40 ------- 0 0.0 3.0 0 0
h 0.130036 3 7 ack 40 ------- 0 3.0 0.0 0 1
+ 0.140036 3 7 ack 40 ------- 0 3.0 0.0 0 1
- 0.140036 3 7 ack 40 ------- 0 3.0 0.0 0 1
d 0.14004 6 7 ack 40 ------- 0 3.0 0.0 0 1
d 0.14004 5 7 ack 40 ------- 0 3.0 0.0 0 1
d 0.14004 4 7 ack 40 ------- 0 3.0 0.0 0 1
d 0.14004 2 7 ack 40 ------- 0 3.0 0.0 0 1
r 0.15004 7 1 ack 40 ------- 0 3.0 0.0 0 1
+ 0.15004 1 0 ack 40 ------- 0 3.0 0.0 0 1
- 0.15004 1 0 ack 40 ------- 0 3.0 0.0 0 1
r 0.160072 1 0 ack 40 ------- 0 3.0 0.0 0 1
0.16007  0  0  3  0  cwnd_ 2.000 
+ 0.160072 0 1 tcp 1040 ------- 0 0.0 3.0 1 2
- 0.160072 0 1 tcp 1040 ------- 0 0.0 3.0 1 2
+ 0.160072 0 1 tcp 1040 ------- 0 0.0 3.0 2 3
- 0.160904 0 1 tcp 1040 ------- 0 0.0 3.0 2 3
r 0.170904 0 1 tcp 1040 ------- 0 0.0 3.0 1 2
h 0.170904 1 7 tcp 1040 ------- 0 0.0 3.0 1 2
r 0.171736 0 1 tcp 1040 ------- 0 0.0 3.0 2 3
h 0.171736 1 7 tcp 1040 ------- 0 0.0 3.0 2 3
+ 0.180904 1 7 tcp 1040 ------- 0 0.0 3.0 1 2
- 0.180904 1 7 tcp 1040 ------- 0 0.0 3.0 1 2
d 0.180908 6 7 tcp 1040 ------- 0 0.0 3.0 1 2
d 0.180908 5 7 tcp 1040 ------- 0 0.0 3.0 1 2
d 0.180908 4 7 tcp 1040 ------- 0 0.0 3.0 1 2
d 0.180908 2 7 tcp 1040 ------- 0 0.0 3.0 1 2
+ 0.181736 1 7 tcp 1040 ------- 0 0.0 3.0 2 3
- 0.18532 1 7 tcp 1040 ------- 0 0.0 3.0 2 3
d 0.185324 6 7 tcp 1040 ------- 0 0.0 3.0 2 3
d 0.185324 5 7 tcp 1040 ------- 0 0.0 3.0 2 3
d 0.185324 4 7 tcp 1040 ------- 0 0.0 3.0 2 3
d 0.185324 2 7 tcp 1040 ------- 0 0.0 3.0 2 3
r 0.190908 7 3 tcp 1040 ------- 0 0.0 3.0 1 2
h 0.190908 3 7 ack 40 ------- 0 3.0 0.0 1 4
r 0.195324 7 3 tcp 1040 ------- 0 0.0 3.0 2 3
h 0.195324 3 7 ack 40 ------- 0 3.0 0.0 2 5
h 0.2 2 7 tcp 40 ------- 0 2.0 1.0 0 6
+ 0.200908 3 7 ack 40 ------- 0 3.0 0.0 1 4
- 0.200908 3 7 ack 40 ------- 0 3.0 0.0 1 4
d 0.200912 6 7 ack 40 ------- 0 3.0 0.0 1 4
d 0.200912 5 7 ack 40 ------- 0 3.0 0.0 1 4
d 0.200912 4 7 ack 40 ------- 0 3.0 0.0 1 4
d 0.200912 2 7 ack 40 ------- 0 3.0 0.0 1 4
+ 0.205324 3 7 ack 40 ------- 0 3.0 0.0 2 5
- 0.205324 3 7 ack 40 ------- 0 3.0 0.0 2 5
d 0.205328 6 7 ack 40 ------- 0 3.0 0.0 2 5
d 0.205328 5 7 ack 40 ------- 0 3.0 0.0 2 5
d 0.205328 4 7 ack 40 ------- 0 3.0 0.0 2 5
d 0.205328 2 7 ack 40 ------- 0 3.0 0.0 2 5
+ 0.21 2 7 tcp 40 ------- 0 2.0 1.0 0 6
- 0.21 2 7 tcp 40 ------- 0 2.0 1.0 0 6
d 0.210004 6 7 tcp 40 ------- 0 2.0 1.0 0 6
d 0.210004 5 7 tcp 40 ------- 0 2.0 1.0 0 6
d 0.210004 4 7 tcp 40 ------- 0 2.0 1.0 0 6
d 0.210004 3 7 tcp 40 ------- 0 2.0 1.0 0 6
r 0.210912 7 1 ack 40 ------- 0 3.0 0.0 1 4
+ 0.210912 1 0 ack 40 ------- 0 3.0 0.0 1 4
- 0.210912 1 0 ack 40 ------- 0 3.0 0.0 1 4
r 0.215328 7 1 ack 40 ------- 0 3.0 0.0 2 5
+ 0.215328 1 0 ack 40 ------- 0 3.0 0.0 2 5
- 0.215328 1 0 ack 40 ------- 0 3.0 0.0 2 5
r 0.220004 7 1 tcp 40 ------- 0 2.0 1.0 0 6
h 0.220004 1 7 ack 40 ------- 0 1.0 2.0 0 7
r 0.220944 1 0 ack 40 ------- 0 3.0 0.0 1 4
0.22094  0  0  3  0  cwnd_ 3.000 
+ 0.220944 0 1 tcp 1040 ------- 0 0.0 3.0 3 8
- 0.220944 0 1 tcp 1040 ------- 0 0.0 3.0 3 8
+ 0.220944 0 1 tcp 1040 ------- 0 0.0 3.0 4 9
- 0.221776 0 1 tcp 1040 ------- 0 0.0 3.0 4 9
r 0.22536 1 0 ack 40 ------- 0 3.0 0.0 2 5
0.22536  0  0  3  0  cwnd_ 4.000 
+ 0.22536 0 1 tcp 1040 ------- 0 0.0 3.0 5 10
- 0.22536 0 1 tcp 1040 ------- 0 0.0 3.0 5 10
+ 0.22536 0 1 tcp 1040 ------- 0 0.0 3.0 6 11
- 0.226192 0 1 tcp 1040 ------- 0 0.0 3.0 6 11
+ 0.230004 1 7 ack 40 ------- 0 1.0 2.0 0 7
- 0.230004 1 7 ack 40 ------- 0 1.0 2.0 0 7
d 0.230008 6 7 ack 40 ------- 0 1.0 2.0 0 7
d 0.230008 5 7 ack 40 ------- 0 1.0 2.0 0 7
d 0.230008 4 7 ack 40 ------- 0 1.0 2.0 0 7
d 0.230008 3 7 ack 40 ------- 0 1.0 2.0 0 7
r 0.231776 0 1 tcp 1040 ------- 0 0.0 3.0 3 8
h 0.231776 1 7 tcp 1040 ------- 0 0.0 3.0 3 8
r 0.232608 0 1 tcp 1040 ------- 0 0.0 3.0 4 9
h 0.232608 1 7 tcp 1040 ------- 0 0.0 3.0 4 9
r 0.236192 0 1 tcp 1040 ------- 0 0.0 3.0 5 10
h 0.236192 1 7 tcp 1040 ------- 0 0.0 3.0 5 10
r 0.237024 0 1 tcp 1040 ------- 0 0.0 3.0 6 11
h 0.237024 1 7 tcp 1040 ------- 0 0.0 3.0 6 11
r 0.240008 7 2 ack 40 ------- 0 1.0 2.0 0 7
0.24001  2  0  1  0  cwnd_ 2.000 
h 0.240008 2 7 tcp 1040 ------- 0 2.0 1.0 1 12
h 0.240008 2 7 tcp 1040 ------- 0 2.0 1.0 2 13
+ 0.241776 1 7 tcp 1040 ------- 0 0.0 3.0 3 8
- 0.241776 1 7 tcp 1040 ------- 0 0.0 3.0 3 8
d 0.24178 6 7 tcp 1040 ------- 0 0.0 3.0 3 8
d 0.24178 5 7 tcp 1040 ------- 0 0.0 3.0 3 8
d 0.24178 4 7 tcp 1040 ------- 0 0.0 3.0 3 8
d 0.24178 2 7 tcp 1040 ------- 0 0.0 3.0 3 8
+ 0.242608 1 7 tcp 1040 ------- 0 0.0 3.0 4 9
+ 0.246192 1 7 tcp 1040 ------- 0 0.0 3.0 5 10
- 0.246192 1 7 tcp 1040 ------- 0 0.0 3.0 4 9
d 0.246196 6 7 tcp 1040 ------- 0 0.0 3.0 4 9
d 0.246196 5 7 tcp 1040 ------- 0 0.0 3.0 4 9
d 0.246196 4 7 tcp 1040 ------- 0 0.0 3.0 4 9
d 0.246196 2 7 tcp 1040 ------- 0 0.0 3.0 4 9
+ 0.247024 1 7 tcp 1040 ------- 0 0.0 3.0 6 11
+ 0.250008 2 7 tcp 1040 ------- 0 2.0 1.0 1 12
- 0.250008 2 7 tcp 1040 ------- 0 2.0 1.0 1 12
+ 0.250008 2 7 tcp 1040 ------- 0 2.0 1.0 2 13
d 0.250012 6 7 tcp 1040 ------- 0 2.0 1.0 1 12
d 0.250012 5 7 tcp 1040 ------- 0 2.0 1.0 1 12
d 0.250012 4 7 tcp 1040 ------- 0 2.0 1.0 1 12
d 0.250012 3 7 tcp 1040 ------- 0 2.0 1.0 1 12
- 0.250608 1 7 tcp 1040 ------- 0 0.0 3.0 5 10
d 0.250612 6 7 tcp 1040 ------- 0 0.0 3.0 5 10
d 0.250612 5 7 tcp 1040 ------- 0 0.0 3.0 5 10
d 0.250612 4 7 tcp 1040 ------- 0 0.0 3.0 5 10
d 0.250612 2 7 tcp 1040 ------- 0 0.0 3.0 5 10
r 0.25178 7 3 tcp 1040 ------- 0 0.0 3.0 3 8
h 0.25178 3 7 ack 40 ------- 0 3.0 0.0 3 14
- 0.254424 2 7 tcp 1040 ------- 0 2.0 1.0 2 13
d 0.254428 6 7 tcp 1040 ------- 0 2.0 1.0 2 13
d 0.254428 5 7 tcp 1040 ------- 0 2.0 1.0 2 13
d 0.254428 4 7 tcp 1040 ------- 0 2.0 1.0 2 13
d 0.254428 3 7 tcp 1040 ------- 0 2.0 1.0 2 13
- 0.255024 1 7 tcp 1040 ------- 0 0.0 3.0 6 11
d 0.255028 6 7 tcp 1040 ------- 0 0.0 3.0 6 11
d 0.255028 5 7 tcp 1040 ------- 0 0.0 3.0 6 11
d 0.255028 4 7 tcp 1040 ------- 0 0.0 3.0 6 11
d 0.255028 2 7 tcp 1040 ------- 0 0.0 3.0 6 11
r 0.256196 7 3 tcp 1040 ------- 0 0.0 3.0 4 9
h 0.256196 3 7 ack 40 ------- 0 3.0 0.0 4 15
r 0.260012 7 1 tcp 1040 ------- 0 2.0 1.0 1 12
h 0.260012 1 7 ack 40 ------- 0 1.0 2.0 1 16
r 0.260612 7 3 tcp 1040 ------- 0 0.0 3.0 5 10
h 0.260612 3 7 ack 40 ------- 0 3.0 0.0 5 17
+ 0.26178 3 7 ack 40 ------- 0 3.0 0.0 3 14
- 0.26178 3 7 ack 40 ------- 0 3.0 0.0 3 14
d 0.261784 6 7 ack 40 ------- 0 3.0 0.0 3 14
d 0.261784 5 7 ack 40 ------- 0 3.0 0.0 3 14
d 0.261784 4 7 ack 40 ------- 0 3.0 0.0 3 14
d 0.261784 2 7 ack 40 ------- 0 3.0 0.0 3 14
r 0.264428 7 1 tcp 1040 ------- 0 2.0 1.0 2 13
h 0.264428 1 7 ack 40 ------- 0 1.0 2.0 2 18
r 0.265028 7 3 tcp 1040 ------- 0 0.0 3.0 6 11
h 0.265028 3 7 ack 40 ------- 0 3.0 0.0 6 19
+ 0.266196 3 7 ack 40 ------- 0 3.0 0.0 4 15
- 0.266196 3 7 ack 40 ------- 0 3.0 0.0 4 15
d 0.2662 6 7 ack 40 ------- 0 3.0 0.0 4 15
d 0.2662 5 7 ack 40 ------- 0 3.0 0.0 4 15
d 0.2662 4 7 ack 40 ------- 0 3.0 0.0 4 15
d 0.2662 2 7 ack 40 ------- 0 3.0 0.0 4 15
+ 0.270012 1 7 ack 40 ------- 0 1.0 2.0 1 16
- 0.270012 1 7 ack 40 ------- 0 1.0 2.0 1 16
d 0.270016 6 7 ack 40 ------- 0 1.0 2.0 1 16
d 0.270016 5 7 ack 40 ------- 0 1.0 2.0 1 16
d 0.270016 4 7 ack 40 ------- 0 1.0 2.0 1 16
d 0.270016 3 7 ack 40 ------- 0 1.0 2.0 1 16
+ 0.270612 3 7 ack 40 ------- 0 3.0 0.0 5 17
- 0.270612 3 7 ack 40 ------- 0 3.0 0.0 5 17
d 0.270616 6 7 ack 40 ------- 0 3.0 0.0 5 17
d 0.270616 5 7 ack 40 ------- 0 3.0 0.0 5 17
d 0.270616 4 7 ack 40 ------- 0 3.0 0.0 5 17
d 0.270616 2 7 ack 40 ------- 0 3.0 0.0 5 17
r 0.271784 7 1 ack 40 ------- 0 3.0 0.0 3 14
+ 0.271784 1 0 ack 40 ------- 0 3.0 0.0 3 14
- 0.271784 1 0 ack 40 ------- 0 3.0 0.0 3 14
+ 0.274428 1 7 ack 40 ------- 0 1.0 2.0 2 18
- 0.274428 1 7 ack 40 ------- 0 1.0 2.0 2 18
d 0.274432 6 7 ack 40 ------- 0 1.0 2.0 2 18
d 0.274432 5 7 ack 40 ------- 0 1.0 2.0 2 18
d 0.274432 4 7 ack 40 ------- 0 1.0 2.0 2 18
d 0.274432 3 7 ack 40 ------- 0 1.0 2.0 2 18
+ 0.275028 3 7 ack 40 ------- 0 3.0 0.0 6 19
- 0.275028 3 7 ack 40 ------- 0 3.0 0.0 6 19
d 0.275032 6 7 ack 40 ------- 0 3.0 0.0 6 19
d 0.275032 5 7 ack 40 ------- 0 3.0 0.0 6 19
d 0.275032 4 7 ack 40 ------- 0 3.0 0.0 6 19
d 0.275032 2 7 ack 40 ------- 0 3.0 0.0 6 19
r 0.2762 7 1 ack 40 ------- 0 3.0 0.0 4 15
+ 0.2762 1 0 ack 40 ------- 0 3.0 0.0 4 15
- 0.2762 1 0 ack 40 ------- 0 3.0 0.0 4 15
r 0.280016 7 2 ack 40 ------- 0 1.0 2.0 1 16
0.28002  2  0  1  0  cwnd_ 3.000 
h 0.280016 2 7 tcp 1040 ------- 0 2.0 1.0 3 20
h 0.280016 2 7 tcp 1040 ------- 0 2.0 1.0 4 21
r 0.280616 7 1 ack 40 ------- 0 3.0 0.0 5 17
+ 0.280616 1 0 ack 40 ------- 0 3.0 0.0 5 17
- 0.280616 1 0 ack 40 ------- 0 3.0 0.0 5 17
r 0.281816 1 0 ack 40 ------- 0 3.0 0.0 3 14
0.28182  0  0  3  0  cwnd_ 5.000 
+ 0.281816 0 1 tcp 1040 ------- 0 0.0 3.0 7 22
- 0.281816 0 1 tcp 1040 ------- 0 0.0 3.0 7 22
+ 0.281816 0 1 tcp 1040 ------- 0 0.0 3.0 8 23
- 0.282648 0 1 tcp 1040 ------- 0 0.0 3.0 8 23
r 0.284432 7 2 ack 40 ------- 0 1.0 2.0 2 18
0.28443  2  0  1  0  cwnd_ 4.000 
h 0.284432 2 7 tcp 1040 ------- 0 2.0 1.0 5 24
h 0.284432 2 7 tcp 1040 ------- 0 2.0 1.0 6 25
r 0.285032 7 1 ack 40 ------- 0 3.0 0.0 6 19
+ 0.285032 1 0 ack 40 ------- 0 3.0 0.0 6 19
- 0.285032 1 0 ack 40 ------- 0 3.0 0.0 6 19
r 0.286232 1 0 ack 40 ------- 0 3.0 0.0 4 15
0.28623  0  0  3  0  cwnd_ 6.000 
+ 0.286232 0 1 tcp 1040 ------- 0 0.0 3.0 9 26
- 0.286232 0 1 tcp 1040 ------- 0 0.0 3.0 9 26
+ 0.286232 0 1 tcp 1040 ------- 0 0.0 3.0 10 27
- 0.287064 0 1 tcp 1040 ------- 0 0.0 3.0 10 27
+ 0.290016 2 7 tcp 1040 ------- 0 2.0 1.0 3 20
- 0.290016 2 7 tcp 1040 ------- 0 2.0 1.0 3 20
+ 0.290016 2 7 tcp 1040 ------- 0 2.0 1.0 4 21
d 0.29002 6 7 tcp 1040 ------- 0 2.0 1.0 3 20
d 0.29002 5 7 tcp 1040 ------- 0 2.0 1.0 3 20
d 0.29002 4 7 tcp 1040 ------- 0 2.0 1.0 3 20
d 0.29002 3 7 tcp 1040 ------- 0 2.0 1.0 3 20
r 0.290648 1 0 ack 40 ------- 0 3.0 0.0 5 17
0.29065  0  0  3  0  cwnd_ 7.000 
+ 0.290648 0 1 tcp 1040 ------- 0 0.0 3.0 11 28
- 0.290648 0 1 tcp 1040 ------- 0 0.0 3.0 11 28
+ 0.290648 0 1 tcp 1040 ------- 0 0.0 3.0 12 29
- 0.29148 0 1 tcp 1040 ------- 0 0.0 3.0 12 29
r 0.292648 0 1 tcp 1040 ------- 0 0.0 3.0 7 22
h 0.292648 1 7 tcp 1040 ------- 0 0.0 3.0 7 22
r 0.29348 0 1 tcp 1040 ------- 0 0.0 3.0 8 23
h 0.29348 1 7 tcp 1040 ------- 0 0.0 3.0 8 23
+ 0.294432 2 7 tcp 1040 ------- 0 2.0 1.0 5 24
+ 0.294432 2 7 tcp 1040 ------- 0 2.0 1.0 6 25
- 0.294432 2 7 tcp 1040 ------- 0 2.0 1.0 4 21
d 0.294436 6 7 tcp 1040 ------- 0 2.0 1.0 4 21
d 0.294436 5 7 tcp 1040 ------- 0 2.0 1.0 4 21
d 0.294436 4 7 tcp 1040 ------- 0 2.0 1.0 4 21
d 0.294436 3 7 tcp 1040 ------- 0 2.0 1.0 4 21
r 0.295064 1 0 ack 40 ------- 0 3.0 0.0 6 19
0.29506  0  0  3  0  cwnd_ 8.000 
+ 0.295064 0 1 tcp 1040 ------- 0 0.0 3.0 13 30
- 0.295064 0 1 tcp 1040 ------- 0 0.0 3.0 13 30
+ 0.295064 0 1 tcp 1040 ------- 0 0.0 3.0 14 31
- 0.295896 0 1 tcp 1040 ------- 0 0.0 3.0 14 31
r 0.297064 0 1 tcp 1040 ------- 0 0.0 3.0 9 26
h 0.297064 1 7 tcp 1040 ------- 0 0.0 3.0 9 26
r 0.297896 0 1 tcp 1040 ------- 0 0.0 3.0 10 27
h 0.297896 1 7 tcp 1040 ------- 0 0.0 3.0 10 27
- 0.298848 2 7 tcp 1040 ------- 0 2.0 1.0 5 24
d 0.298852 6 7 tcp 1040 ------- 0 2.0 1.0 5 24
d 0.298852 5 7 tcp 1040 ------- 0 2.0 1.0 5 24
d 0.298852 4 7 tcp 1040 ------- 0 2.0 1.0 5 24
d 0.298852 3 7 tcp 1040 ------- 0 2.0 1.0 5 24
r 0.30002 7 1 tcp 1040 ------- 0 2.0 1.0 3 20
h 0.30002 1 7 ack 40 ------- 0 1.0 2.0 3 32
r 0.30148 0 1 tcp 1040 ------- 0 0.0 3.0 11 28
h 0.30148 1 7 tcp 1040 ------- 0 0.0 3.0 11 28
r 0.302312 0 1 tcp 1040 ------- 0 0.0 3.0 12 29
h 0.302312 1 7 tcp 1040 ------- 0 0.0 3.0 12 29
+ 0.302648 1 7 tcp 1040 ------- 0 0.0 3.0 7 22
- 0.302648 1 7 tcp 1040 ------- 0 0.0 3.0 7 22
d 0.302652 6 7 tcp 1040 ------- 0 0.0 3.0 7 22
d 0.302652 5 7 tcp 1040 ------- 0 0.0 3.0 7 22
d 0.302652 4 7 tcp 1040 ------- 0 0.0 3.0 7 22
d 0.302652 2 7 tcp 1040 ------- 0 0.0 3.0 7 22
- 0.303264 2 7 tcp 1040 ------- 0 2.0 1.0 6 25
d 0.303268 6 7 tcp 1040 ------- 0 2.0 1.0 6 25
d 0.303268 5 7 tcp 1040 ------- 0 2.0 1.0 6 25
d 0.303268 4 7 tcp 1040 ------- 0 2.0 1.0 6 25
d 0.303268 3 7 tcp 1040 ------- 0 2.0 1.0 6 25
+ 0.30348 1 7 tcp 1040 ------- 0 0.0 3.0 8 23
r 0.304436 7 1 tcp 1040 ------- 0 2.0 1.0 4 21
h 0.304436 1 7 ack 40 ------- 0 1.0 2.0 4 33
r 0.305896 0 1 tcp 1040 ------- 0 0.0 3.0 13 30
h 0.305896 1 7 tcp 1040 ------- 0 0.0 3.0 13 30
r 0.306728 0 1 tcp 1040 ------- 0 0.0 3.0 14 31
h 0.306728 1 7 tcp 1040 ------- 0 0.0 3.0 14 31
- 0.307064 1 7 tcp 1040 ------- 0 0.0 3.0 8 23
+ 0.307064 1 7 tcp 1040 ------- 0 0.0 3.0 9 26
d 0.307068 6 7 tcp 1040 ------- 0 0.0 3.0 8 23
d 0.307068 5 7 tcp 1040 ------- 0 0.0 3.0 8 23
d 0.307068 4 7 tcp 1040 ------- 0 0.0 3.0 8 23
d 0.307068 2 7 tcp 1040 ------- 0 0.0 3.0 8 23
+ 0.307896 1 7 tcp 1040 ------- 0 0.0 3.0 10 27
r 0.308852 7 1 tcp 1040 ------- 0 2.0 1.0 5 24
h 0.308852 1 7 ack 40 ------- 0 1.0 2.0 5 34
+ 0.31002 1 7 ack 40 ------- 0 1.0 2.0 3 32
- 0.31148 1 7 tcp 1040 ------- 0 0.0 3.0 9 26
+ 0.31148 1 7 tcp 1040 ------- 0 0.0 3.0 11 28
d 0.311484 6 7 tcp 1040 ------- 0 0.0 3.0 9 26
d 0.311484 5 7 tcp 1040 ------- 0 0.0 3.0 9 26
d 0.311484 4 7 tcp 1040 ------- 0 0.0 3.0 9 26
d 0.311484 2 7 tcp 1040 ------- 0 0.0 3.0 9 26
+ 0.312312 1 7 tcp 1040 ------- 0 0.0 3.0 12 29
r 0.312652 7 3 tcp 1040 ------- 0 0.0 3.0 7 22
h 0.312652 3 7 ack 40 ------- 0 3.0 0.0 7 35
r 0.313268 7 1 tcp 1040 ------- 0 2.0 1.0 6 25
h 0.313268 1 7 ack 40 ------- 0 1.0 2.0 6 36
+ 0.314436 1 7 ack 40 ------- 0 1.0 2.0 4 33
- 0.315896 1 7 tcp 1040 ------- 0 0.0 3.0 10 27
+ 0.315896 1 7 tcp 1040 ------- 0 0.0 3.0 13 30
d 0.3159 6 7 tcp 1040 ------- 0 0.0 3.0 10 27
d 0.3159 5 7 tcp 1040 ------- 0 0.0 3.0 10 27
d 0.3159 4 7 tcp 1040 ------- 0 0.0 3.0 10 27
d 0.3159 2 7 tcp 1040 ------- 0 0.0 3.0 10 27
+ 0.316728 1 7 tcp 1040 ------- 0 0.0 3.0 14 31
r 0.317068 7 3 tcp 1040 ------- 0 0.0 3.0 8 23
h 0.317068 3 7 ack 40 ------- 0 3.0 0.0 8 37
+ 0.318852 1 7 ack 40 ------- 0 1.0 2.0 5 34
- 0.320312 1 7 ack 40 ------- 0 1.0 2.0 3 32
d 0.320316 6 7 ack 40 ------- 0 1.0 2.0 3 32
d 0.320316 5 7 ack 40 ------- 0 1.0 2.0 3 32
d 0.320316 4 7 ack 40 ------- 0 1.0 2.0 3 32
d 0.320316 3 7 ack 40 ------- 0 1.0 2.0 3 32
- 0.320728 1 7 tcp 1040 ------- 0 0.0 3.0 11 28
d 0.320732 6 7 tcp 1040 ------- 0 0.0 3.0 11 28
d 0.320732 5 7 tcp 1040 ------- 0 0.0 3.0 11 28
d 0.320732 4 7 tcp 1040 ------- 0 0.0 3.0 11 28
d 0.320732 2 7 tcp 1040 ------- 0 0.0 3.0 11 28
r 0.321484 7 3 tcp 1040 ------- 0 0.0 3.0 9 26
h 0.321484 3 7 ack 40 ------- 0 3.0 0.0 9 38
+ 0.322652 3 7 ack 40 ------- 0 3.0 0.0 7 35
- 0.322652 3 7 ack 40 ------- 0 3.0 0.0 7 35
d 0.322656 6 7 ack 40 ------- 0 3.0 0.0 7 35
d 0.322656 5 7 ack 40 ------- 0 3.0 0.0 7 35
d 0.322656 4 7 ack 40 ------- 0 3.0 0.0 7 35
d 0.322656 2 7 ack 40 ------- 0 3.0 0.0 7 35
+ 0.323268 1 7 ack 40 ------- 0 1.0 2.0 6 36
- 0.325144 1 7 tcp 1040 ------- 0 0.0 3.0 12 29
d 0.325148 6 7 tcp 1040 ------- 0 0.0 3.0 12 29
d 0.325148 5 7 tcp 1040 ------- 0 0.0 3.0 12 29
d 0.325148 4 7 tcp 1040 ------- 0 0.0 3.0 12 29
d 0.325148 2 7 tcp 1040 ------- 0 0.0 3.0 12 29
r 0.3259 7 3 tcp 1040 ------- 0 0.0 3.0 10 27
h 0.3259 3 7 ack 40 ------- 0 3.0 0.0 10 39
+ 0.327068 3 7 ack 40 ------- 0 3.0 0.0 8 37
- 0.327068 3 7 ack 40 ------- 0 3.0 0.0 8 37
d 0.327072 6 7 ack 40 ------- 0 3.0 0.0 8 37
d 0.327072 5 7 ack 40 ------- 0 3.0 0.0 8 37
d 0.327072 4 7 ack 40 ------- 0 3.0 0.0 8 37
d 0.327072 2 7 ack 40 ------- 0 3.0 0.0 8 37
- 0.32956 1 7 ack 40 ------- 0 1.0 2.0 4 33
d 0.329564 6 7 ack 40 ------- 0 1.0 2.0 4 33
d 0.329564 5 7 ack 40 ------- 0 1.0 2.0 4 33
d 0.329564 4 7 ack 40 ------- 0 1.0 2.0 4 33
d 0.329564 3 7 ack 40 ------- 0 1.0 2.0 4 33
- 0.329976 1 7 tcp 1040 ------- 0 0.0 3.0 13 30
d 0.32998 6 7 tcp 1040 ------- 0 0.0 3.0 13 30
d 0.32998 5 7 tcp 1040 ------- 0 0.0 3.0 13 30
d 0.32998 4 7 tcp 1040 ------- 0 0.0 3.0 13 30
d 0.32998 2 7 tcp 1040 ------- 0 0.0 3.0 13 30
r 0.330316 7 2 ack 40 ------- 0 1.0 2.0 3 32
0.33032  2  0  1  0  cwnd_ 5.000 
h 0.330316 2 7 tcp 1040 ------- 0 2.0 1.0 7 40
h 0.330316 2 7 tcp 1040 ------- 0 2.0 1.0 8 41
r 0.330732 7 3 tcp 1040 ------- 0 0.0 3.0 11 28
h 0.330732 3 7 ack 40 ------- 0 3.0 0.0 11 42
+ 0.331484 3 7 ack 40 ------- 0 3.0 0.0 9 38
- 0.331484 3 7 ack 40 ------- 0 3.0 0.0 9 38
d 0.331488 6 7 ack 40 ------- 0 3.0 0.0 9 38
d 0.331488 5 7 ack 40 ------- 0 3.0 0.0 9 38
d 0.331488 4 7 ack 40 ------- 0 3.0 0.0 9 38
d 0.331488 2 7 ack 40 ------- 0 3.0 0.0 9 38
r 0.332656 7 1 ack 40 ------- 0 3.0 0.0 7 35
+ 0.332656 1 0 ack 40 ------- 0 3.0 0.0 7 35
- 0.332656 1 0 ack 40 ------- 0 3.0 0.0 7 35
- 0.334392 1 7 tcp 1040 ------- 0 0.0 3.0 14 31
d 0.334396 6 7 tcp 1040 ------- 0 0.0 3.0 14 31
d 0.334396 5 7 tcp 1040 ------- 0 0.0 3.0 14 31
d 0.334396 4 7 tcp 1040 ------- 0 0.0 3.0 14 31
d 0.334396 2 7 tcp 1040 ------- 0 0.0 3.0 14 31
r 0.335148 7 3 tcp 1040 ------- 0 0.0 3.0 12 29
h 0.335148 3 7 ack 40 ------- 0 3.0 0.0 12 43
+ 0.3359 3 7 ack 40 ------- 0 3.0 0.0 10 39
- 0.3359 3 7 ack 40 ------- 0 3.0 0.0 10 39
d 0.335904 6 7 ack 40 ------- 0 3.0 0.0 10 39
d 0.335904 5 7 ack 40 ------- 0 3.0 0.0 10 39
d 0.335904 4 7 ack 40 ------- 0 3.0 0.0 10 39
d 0.335904 2 7 ack 40 ------- 0 3.0 0.0 10 39
r 0.337072 7 1 ack 40 ------- 0 3.0 0.0 8 37
+ 0.337072 1 0 ack 40 ------- 0 3.0 0.0 8 37
- 0.337072 1 0 ack 40 ------- 0 3.0 0.0 8 37
- 0.338808 1 7 ack 40 ------- 0 1.0 2.0 5 34
d 0.338812 6 7 ack 40 ------- 0 1.0 2.0 5 34
d 0.338812 5 7 ack 40 ------- 0 1.0 2.0 5 34
d 0.338812 4 7 ack 40 ------- 0 1.0 2.0 5 34
d 0.338812 3 7 ack 40 ------- 0 1.0 2.0 5 34
- 0.339224 1 7 ack 40 ------- 0 1.0 2.0 6 36
d 0.339228 6 7 ack 40 ------- 0 1.0 2.0 6 36
d 0.339228 5 7 ack 40 ------- 0 1.0 2.0 6 36
d 0.339228 4 7 ack 40 ------- 0 1.0 2.0 6 36
d 0.339228 3 7 ack 40 ------- 0 1.0 2.0 6 36
r 0.339564 7 2 ack 40 ------- 0 1.0 2.0 4 33
0.33956  2  0  1  0  cwnd_ 6.000 
h 0.339564 2 7 tcp 1040 ------- 0 2.0 1.0 9 44
h 0.339564 2 7 tcp 1040 ------- 0 2.0 1.0 10 45
r 0.33998 7 3 tcp 1040 ------- 0 0.0 3.0 13 30
h 0.33998 3 7 ack 40 ------- 0 3.0 0.0 13 46
+ 0.340316 2 7 tcp 1040 ------- 0 2.0 1.0 7 40
- 0.340316 2 7 tcp 1040 ------- 0 2.0 1.0 7 40
+ 0.340316 2 7 tcp 1040 ------- 0 2.0 1.0 8 41
d 0.34032 6 7 tcp 1040 ------- 0 2.0 1.0 7 40
d 0.34032 5 7 tcp 1040 ------- 0 2.0 1.0 7 40
d 0.34032 4 7 tcp 1040 ------- 0 2.0 1.0 7 40
d 0.34032 3 7 tcp 1040 ------- 0 2.0 1.0 7 40
+ 0.340732 3 7 ack 40 ------- 0 3.0 0.0 11 42
- 0.340732 3 7 ack 40 ------- 0 3.0 0.0 11 42
d 0.340736 6 7 ack 40 ------- 0 3.0 0.0 11 42
d 0.340736 5 7 ack 40 ------- 0 3.0 0.0 11 42
d 0.340736 4 7 ack 40 ------- 0 3.0 0.0 11 42
d 0.340736 2 7 ack 40 ------- 0 3.0 0.0 11 42
r 0.341488 7 1 ack 40 ------- 0 3.0 0.0 9 38
+ 0.341488 1 0 ack 40 ------- 0 3.0 0.0 9 38
- 0.341488 1 0 ack 40 ------- 0 3.0 0.0 9 38
r 0.342688 1 0 ack 40 ------- 0 3.0 0.0 7 35
0.34269  0  0  3  0  cwnd_ 9.000 
+ 0.342688 0 1 tcp 1040 ------- 0 0.0 3.0 15 47
- 0.342688 0 1 tcp 1040 ------- 0 0.0 3.0 15 47
+ 0.342688 0 1 tcp 1040 ------- 0 0.0 3.0 16 48
- 0.34352 0 1 tcp 1040 ------- 0 0.0 3.0 16 48
r 0.344396 7 3 tcp 1040 ------- 0 0.0 3.0 14 31
h 0.344396 3 7 ack 40 ------- 0 3.0 0.0 14 49
- 0.344732 2 7 tcp 1040 ------- 0 2.0 1.0 8 41
d 0.344736 6 7 tcp 1040 ------- 0 2.0 1.0 8 41
d 0.344736 5 7 tcp 1040 ------- 0 2.0 1.0 8 41
d 0.344736 4 7 tcp 1040 ------- 0 2.0 1.0 8 41
d 0.344736 3 7 tcp 1040 ------- 0 2.0 1.0 8 41
+ 0.345148 3 7 ack 40 ------- 0 3.0 0.0 12 43
- 0.345148 3 7 ack 40 ------- 0 3.0 0.0 12 43
d 0.345152 6 7 ack 40 ------- 0 3.0 0.0 12 43
d 0.345152 5 7 ack 40 ------- 0 3.0 0.0 12 43
d 0.345152 4 7 ack 40 ------- 0 3.0 0.0 12 43
d 0.345152 2 7 ack 40 ------- 0 3.0 0.0 12 43
r 0.345904 7 1 ack 40 ------- 0 3.0 0.0 10 39
+ 0.345904 1 0 ack 40 ------- 0 3.0 0.0 10 39
- 0.345904 1 0 ack 40 ------- 0 3.0 0.0 10 39
r 0.347104 1 0 ack 40 ------- 0 3.0 0.0 8 37
0.34710  0  0  3  0  cwnd_ 10.000
+ 0.347104 0 1 tcp 1040 ------- 0 0.0 3.0 17 50
- 0.347104 0 1 tcp 1040 ------- 0 0.0 3.0 17 50
+ 0.347104 0 1 tcp 1040 ------- 0 0.0 3.0 18 51
- 0.347936 0 1 tcp 1040 ------- 0 0.0 3.0 18 51
r 0.348812 7 2 ack 40 ------- 0 1.0 2.0 5 34
0.34881  2  0  1  0  cwnd_ 7.000 
h 0.348812 2 7 tcp 1040 ------- 0 2.0 1.0 11 52
h 0.348812 2 7 tcp 1040 ------- 0 2.0 1.0 12 53
r 0.349228 7 2 ack 40 ------- 0 1.0 2.0 6 36
0.34923  2  0  1  0  cwnd_ 8.000 
h 0.349228 2 7 tcp 1040 ------- 0 2.0 1.0 13 54
h 0.349228 2 7 tcp 1040 ------- 0 2.0 1.0 14 55
+ 0.349564 2 7 tcp 1040 ------- 0 2.0 1.0 9 44
- 0.349564 2 7 tcp 1040 ------- 0 2.0 1.0 9 44
+ 0.349564 2 7 tcp 1040 ------- 0 2.0 1.0 10 45
d 0.349568 6 7 tcp 1040 ------- 0 2.0 1.0 9 44
d 0.349568 5 7 tcp 1040 ------- 0 2.0 1.0 9 44
d 0.349568 4 7 tcp 1040 ------- 0 2.0 1.0 9 44
d 0.349568 3 7 tcp 1040 ------- 0 2.0 1.0 9 44
+ 0.34998 3 7 ack 40 ------- 0 3.0 0.0 13 46
- 0.34998 3 7 ack 40 ------- 0 3.0 0.0 13 46
d 0.349984 6 7 ack 40 ------- 0 3.0 0.0 13 46
d 0.349984 5 7 ack 40 ------- 0 3.0 0.0 13 46
d 0.349984 4 7 ack 40 ------- 0 3.0 0.0 13 46
d 0.349984 2 7 ack 40 ------- 0 3.0 0.0 13 46
r 0.35032 7 1 tcp 1040 ------- 0 2.0 1.0 7 40
h 0.35032 1 7 ack 40 ------- 0 1.0 2.0 7 56
r 0.350736 7 1 ack 40 ------- 0 3.0 0.0 11 42
+ 0.350736 1 0 ack 40 ------- 0 3.0 0.0 11 42
- 0.350736 1 0 ack 40 ------- 0 3.0 0.0 11 42
r 0.35152 1 0 ack 40 ------- 0 3.0 0.0 9 38
0.35152  0  0  3  0  cwnd_ 11.000
+ 0.35152 0 1 tcp 1040 ------- 0 0.0 3.0 19 57
- 0.35152 0 1 tcp 1040 ------- 0 0.0 3.0 19 57
+ 0.35152 0 1 tcp 1040 ------- 0 0.0 3.0 20 58
- 0.352352 0 1 tcp 1040 ------- 0 0.0 3.0 20 58
r 0.35352 0 1 tcp 1040 ------- 0 0.0 3.0 15 47
h 0.35352 1 7 tcp 1040 ------- 0 0.0 3.0 15 47
- 0.35398 2 7 tcp 1040 ------- 0 2.0 1.0 10 45
d 0.353984 6 7 tcp 1040 ------- 0 2.0 1.0 10 45
d 0.353984 5 7 tcp 1040 ------- 0 2.0 1.0 10 45
d 0.353984 4 7 tcp 1040 ------- 0 2.0 1.0 10 45
d 0.353984 3 7 tcp 1040 ------- 0 2.0 1.0 10 45
r 0.354352 0 1 tcp 1040 ------- 0 0.0 3.0 16 48
h 0.354352 1 7 tcp 1040 ------- 0 0.0 3.0 16 48
+ 0.354396 3 7 ack 40 ------- 0 3.0 0.0 14 49
- 0.354396 3 7 ack 40 ------- 0 3.0 0.0 14 49
d 0.3544 6 7 ack 40 ------- 0 3.0 0.0 14 49
d 0.3544 5 7 ack 40 ------- 0 3.0 0.0 14 49
d 0.3544 4 7 ack 40 ------- 0 3.0 0.0 14 49
d 0.3544 2 7 ack 40 ------- 0 3.0 0.0 14 49
r 0.354736 7 1 tcp 1040 ------- 0 2.0 1.0 8 41
h 0.354736 1 7 ack 40 ------- 0 1.0 2.0 8 59
r 0.355152 7 1 ack 40 ------- 0 3.0 0.0 12 43
+ 0.355152 1 0 ack 40 ------- 0 3.0 0.0 12 43
- 0.355152 1 0 ack 40 ------- 0 3.0 0.0 12 43
r 0.355936 1 0 ack 40 ------- 0 3.0 0.0 10 39
0.35594  0  0  3  0  cwnd_ 12.000
+ 0.355936 0 1 tcp 1040 ------- 0 0.0 3.0 21 60
- 0.355936 0 1 tcp 1040 ------- 0 0.0 3.0 21 60
+ 0.355936 0 1 tcp 1040 ------- 0 0.0 3.0 22 61
- 0.356768 0 1 tcp 1040 ------- 0 0.0 3.0 22 61
r 0.357936 0 1 tcp 1040 ------- 0 0.0 3.0 17 50
h 0.357936 1 7 tcp 1040 ------- 0 0.0 3.0 17 50
r 0.358768 0 1 tcp 1040 ------- 0 0.0 3.0 18 51
h 0.358768 1 7 tcp 1040 ------- 0 0.0 3.0 18 51
+ 0.358812 2 7 tcp 1040 ------- 0 2.0 1.0 11 52
- 0.358812 2 7 tcp 1040 ------- 0 2.0 1.0 11 52
+ 0.358812 2 7 tcp 1040 ------- 0 2.0 1.0 12 53
d 0.358816 6 7 tcp 1040 ------- 0 2.0 1.0 11 52
d 0.358816 5 7 tcp 1040 ------- 0 2.0 1.0 11 52
d 0.358816 4 7 tcp 1040 ------- 0 2.0 1.0 11 52
d 0.358816 3 7 tcp 1040 ------- 0 2.0 1.0 11 52
+ 0.359228 2 7 tcp 1040 ------- 0 2.0 1.0 13 54
+ 0.359228 2 7 tcp 1040 ------- 0 2.0 1.0 14 55
r 0.359568 7 1 tcp 1040 ------- 0 2.0 1.0 9 44
h 0.359568 1 7 ack 40 ------- 0 1.0 2.0 9 62
r 0.359984 7 1 ack 40 ------- 0 3.0 0.0 13 46
+ 0.359984 1 0 ack 40 ------- 0 3.0 0.0 13 46
- 0.359984 1 0 ack 40 ------- 0 3.0 0.0 13 46
+ 0.36032 1 7 ack 40 ------- 0 1.0 2.0 7 56
- 0.36032 1 7 ack 40 ------- 0 1.0 2.0 7 56
d 0.360324 6 7 ack 40 ------- 0 1.0 2.0 7 56
d 0.360324 5 7 ack 40 ------- 0 1.0 2.0 7 56
d 0.360324 4 7 ack 40 ------- 0 1.0 2.0 7 56
d 0.360324 3 7 ack 40 ------- 0 1.0 2.0 7 56
r 0.360768 1 0 ack 40 ------- 0 3.0 0.0 11 42
0.36077  0  0  3  0  cwnd_ 13.000
+ 0.360768 0 1 tcp 1040 ------- 0 0.0 3.0 23 63
- 0.360768 0 1 tcp 1040 ------- 0 0.0 3.0 23 63
+ 0.360768 0 1 tcp 1040 ------- 0 0.0 3.0 24 64
- 0.3616 0 1 tcp 1040 ------- 0 0.0 3.0 24 64
r 0.362352 0 1 tcp 1040 ------- 0 0.0 3.0 19 57
h 0.362352 1 7 tcp 1040 ------- 0 0.0 3.0 19 57
r 0.363184 0 1 tcp 1040 ------- 0 0.0 3.0 20 58
h 0.363184 1 7 tcp 1040 ------- 0 0.0 3.0 20 58
- 0.363228 2 7 tcp 1040 ------- 0 2.0 1.0 12 53
d 0.363232 6 7 tcp 1040 ------- 0 2.0 1.0 12 53
d 0.363232 5 7 tcp 1040 ------- 0 2.0 1.0 12 53
d 0.363232 4 7 tcp 1040 ------- 0 2.0 1.0 12 53
d 0.363232 3 7 tcp 1040 ------- 0 2.0 1.0 12 53
+ 0.36352 1 7 tcp 1040 ------- 0 0.0 3.0 15 47
- 0.36352 1 7 tcp 1040 ------- 0 0.0 3.0 15 47
d 0.363524 6 7 tcp 1040 ------- 0 0.0 3.0 15 47
d 0.363524 5 7 tcp 1040 ------- 0 0.0 3.0 15 47
d 0.363524 4 7 tcp 1040 ------- 0 0.0 3.0 15 47
d 0.363524 2 7 tcp 1040 ------- 0 0.0 3.0 15 47
r 0.363984 7 1 tcp 1040 ------- 0 2.0 1.0 10 45
h 0.363984 1 7 ack 40 ------- 0 1.0 2.0 10 65
+ 0.364352 1 7 tcp 1040 ------- 0 0.0 3.0 16 48
r 0.3644 7 1 ack 40 ------- 0 3.0 0.0 14 49
+ 0.3644 1 0 ack 40 ------- 0 3.0 0.0 14 49
- 0.3644 1 0 ack 40 ------- 0 3.0 0.0 14 49
+ 0.364736 1 7 ack 40 ------- 0 1.0 2.0 8 59
r 0.365184 1 0 ack 40 ------- 0 3.0 0.0 12 43
0.36518  0  0  3  0  cwnd_ 14.000
+ 0.365184 0 1 tcp 1040 ------- 0 0.0 3.0 25 66
- 0.365184 0 1 tcp 1040 ------- 0 0.0 3.0 25 66
+ 0.365184 0 1 tcp 1040 ------- 0 0.0 3.0 26 67
- 0.366016 0 1 tcp 1040 ------- 0 0.0 3.0 26 67
r 0.366768 0 1 tcp 1040 ------- 0 0.0 3.0 21 60
h 0.366768 1 7 tcp 1040 ------- 0 0.0 3.0 21 60
r 0.3676 0 1 tcp 1040 ------- 0 0.0 3.0 22 61
h 0.3676 1 7 tcp 1040 ------- 0 0.0 3.0 22 61
- 0.367644 2 7 tcp 1040 ------- 0 2.0 1.0 13 54
d 0.367648 6 7 tcp 1040 ------- 0 2.0 1.0 13 54
d 0.367648 5 7 tcp 1040 ------- 0 2.0 1.0 13 54
d 0.367648 4 7 tcp 1040 ------- 0 2.0 1.0 13 54
d 0.367648 3 7 tcp 1040 ------- 0 2.0 1.0 13 54
+ 0.367936 1 7 tcp 1040 ------- 0 0.0 3.0 17 50
- 0.367936 1 7 tcp 1040 ------- 0 0.0 3.0 16 48
d 0.36794 6 7 tcp 1040 ------- 0 0.0 3.0 16 48
d 0.36794 5 7 tcp 1040 ------- 0 0.0 3.0 16 48
d 0.36794 4 7 tcp 1040 ------- 0 0.0 3.0 16 48
d 0.36794 2 7 tcp 1040 ------- 0 0.0 3.0 16 48
+ 0.368768 1 7 tcp 1040 ------- 0 0.0 3.0 18 51
r 0.368816 7 1 tcp 1040 ------- 0 2.0 1.0 11 52
h 0.368816 1 7 ack 40 ------- 0 1.0 2.0 11 68
+ 0.369568 1 7 ack 40 ------- 0 1.0 2.0 9 62
r 0.370016 1 0 ack 40 ------- 0 3.0 0.0 13 46
0.37002  0  0  3  0  cwnd_ 15.000
+ 0.370016 0 1 tcp 1040 ------- 0 0.0 3.0 27 69
- 0.370016 0 1 tcp 1040 ------- 0 0.0 3.0 27 69
+ 0.370016 0 1 tcp 1040 ------- 0 0.0 3.0 28 70
r 0.370324 7 2 ack 40 ------- 0 1.0 2.0 7 56
0.37032  2  0  1  0  cwnd_ 9.000 
h 0.370324 2 7 tcp 1040 ------- 0 2.0 1.0 15 71
h 0.370324 2 7 tcp 1040 ------- 0 2.0 1.0 16 72
- 0.370848 0 1 tcp 1040 ------- 0 0.0 3.0 28 70
r 0.3716 0 1 tcp 1040 ------- 0 0.0 3.0 23 63
h 0.3716 1 7 tcp 1040 ------- 0 0.0 3.0 23 63
- 0.37206 2 7 tcp 1040 ------- 0 2.0 1.0 14 55
d 0.372064 6 7 tcp 1040 ------- 0 2.0 1.0 14 55
d 0.372064 5 7 tcp 1040 ------- 0 2.0 1.0 14 55
d 0.372064 4 7 tcp 1040 ------- 0 2.0 1.0 14 55
d 0.372064 3 7 tcp 1040 ------- 0 2.0 1.0 14 55
+ 0.372352 1 7 tcp 1040 ------- 0 0.0 3.0 19 57
- 0.372352 1 7 ack 40 ------- 0 1.0 2.0 8 59
d 0.372356 6 7 ack 40 ------- 0 1.0 2.0 8 59
d 0.372356 5 7 ack 40 ------- 0 1.0 2.0 8 59
d 0.372356 4 7 ack 40 ------- 0 1.0 2.0 8 59
d 0.372356 3 7 ack 40 ------- 0 1.0 2.0 8 59
r 0.372432 0 1 tcp 1040 ------- 0 0.0 3.0 24 64
h 0.372432 1 7 tcp 1040 ------- 0 0.0 3.0 24 64
- 0.372768 1 7 tcp 1040 ------- 0 0.0 3.0 17 50
d 0.372772 6 7 tcp 1040 ------- 0 0.0 3.0 17 50
d 0.372772 5 7 tcp 1040 ------- 0 0.0 3.0 17 50
d 0.372772 4 7 tcp 1040 ------- 0 0.0 3.0 17 50
d 0.372772 2 7 tcp 1040 ------- 0 0.0 3.0 17 50
+ 0.373184 1 7 tcp 1040 ------- 0 0.0 3.0 20 58
r 0.373232 7 1 tcp 1040 ------- 0 2.0 1.0 12 53
h 0.373232 1 7 ack 40 ------- 0 1.0 2.0 12 73
r 0.373524 7 3 tcp 1040 ------- 0 0.0 3.0 15 47
h 0.373524 3 7 ack 40 ------- 0 3.0 0.0 15 74
+ 0.373984 1 7 ack 40 ------- 0 1.0 2.0 10 65
r 0.374432 1 0 ack 40 ------- 0 3.0 0.0 14 49
0.37443  0  0  3  0  cwnd_ 16.000
+ 0.374432 0 1 tcp 1040 ------- 0 0.0 3.0 29 75
- 0.374432 0 1 tcp 1040 ------- 0 0.0 3.0 29 75
+ 0.374432 0 1 tcp 1040 ------- 0 0.0 3.0 30 76
- 0.375264 0 1 tcp 1040 ------- 0 0.0 3.0 30 76
r 0.376016 0 1 tcp 1040 ------- 0 0.0 3.0 25 66
h 0.376016 1 7 tcp 1040 ------- 0 0.0 3.0 25 66
+ 0.376768 1 7 tcp 1040 ------- 0 0.0 3.0 21 60
r 0.376848 0 1 tcp 1040 ------- 0 0.0 3.0 26 67
h 0.376848 1 7 tcp 1040 ------- 0 0.0 3.0 26 67
- 0.377184 1 7 tcp 1040 ------- 0 0.0 3.0 18 51
d 0.377188 6 7 tcp 1040 ------- 0 0.0 3.0 18 51
d 0.377188 5 7 tcp 1040 ------- 0 0.0 3.0 18 51
d 0.377188 4 7 tcp 1040 ------- 0 0.0 3.0 18 51
d 0.377188 2 7 tcp 1040 ------- 0 0.0 3.0 18 51
+ 0.3776 1 7 tcp 1040 ------- 0 0.0 3.0 22 61
r 0.377648 7 1 tcp 1040 ------- 0 2.0 1.0 13 54
h 0.377648 1 7 ack 40 ------- 0 1.0 2.0 13 77
r 0.37794 7 3 tcp 1040 ------- 0 0.0 3.0 16 48
h 0.37794 3 7 ack 40 ------- 0 3.0 0.0 16 78
+ 0.378816 1 7 ack 40 ------- 0 1.0 2.0 11 68
+ 0.380324 2 7 tcp 1040 ------- 0 2.0 1.0 15 71
- 0.380324 2 7 tcp 1040 ------- 0 2.0 1.0 15 71
+ 0.380324 2 7 tcp 1040 ------- 0 2.0 1.0 16 72
d 0.380328 6 7 tcp 1040 ------- 0 2.0 1.0 15 71
d 0.380328 5 7 tcp 1040 ------- 0 2.0 1.0 15 71
d 0.380328 4 7 tcp 1040 ------- 0 2.0 1.0 15 71
d 0.380328 3 7 tcp 1040 ------- 0 2.0 1.0 15 71
r 0.380848 0 1 tcp 1040 ------- 0 0.0 3.0 27 69
h 0.380848 1 7 tcp 1040 ------- 0 0.0 3.0 27 69
+ 0.3816 1 7 tcp 1040 ------- 0 0.0 3.0 23 63
- 0.3816 1 7 ack 40 ------- 0 1.0 2.0 9 62
d 0.381604 6 7 ack 40 ------- 0 1.0 2.0 9 62
d 0.381604 5 7 ack 40 ------- 0 1.0 2.0 9 62